Solute,Solvent,Temperature_K,Solubility,Units,MW,LogP,TPSA,HBD,HBA
O[S](=O)(=O)c1ccc2ccccc2c1,water,298,0.230443278,mol/L,208.238,2.0865,54.37,1.0,2.0
CCC(C)=O,water,298,0.689797278,mol/L,72.10699999999999,0.9854,17.07,0.0,1.0
N[C@@H](CCC(N)=O)C(O)=O,water,298,-0.611875483,mol/L,146.14600000000002,-1.3361999999999998,106.41,3.0,3.0
CCCCNCC,water,298,-0.454922118,mol/L,101.19299999999998,1.396,12.03,1.0,1.0
COC(=O)CC(=C)C(=O)OC,water,298,-0.653770318,mol/L,158.153,0.27869999999999995,52.60000000000001,0.0,4.0
OCCOCCOc1ccccc1,water,298,-0.716525615,mol/L,182.21900000000002,1.0743000000000003,38.69,1.0,3.0
CC(CCCC(C)(C)O)CC=O,water,298,-0.692136567,mol/L,172.268,2.1527000000000003,37.3,1.0,2.0
CCCNCCC,water,298,-0.461082427,mol/L,101.193,1.396,12.03,1.0,1.0
Nc1ccccc1,water,298,-0.425016895,mol/L,93.12899999999999,1.2688000000000001,26.02,1.0,1.0
[Li+].[Li+].[O-][S]([O-])(=O)=O,water,298,0.501649943,mol/L,109.945,-7.329999999999999,80.25999999999999,0.0,4.0
CCN(O)CC,water,298,0.591890589,mol/L,89.138,0.7174,23.47,1.0,2.0
[Na+].OC(=O)c1cc(cc(c1)[S]([O-])(=O)=O)C(O)=O,water,298,0.109395948,mol/L,268.178,-3.008899999999999,131.8,2.0,5.0
[Na+].[Na+].[Na+].[Na+].[Na+].[Na+].[O-][S](=O)(=O)c1cc(Nc2nc(Cl)nc(Nc3ccc(Nc4nc(Cl)nc(Nc5cc(cc6C=C(/C(=N/Nc7ccccc7[S]([O-])(=O)=O)C(=O)c56)[S]([O-])(=O)=O)[S]([O-])(=O)=O)n4)cc3)n2)c8C(=O)C(=N/Nc9ccccc9[S]([O-])(=O)=O)\C(=Cc8c1)[S]([O-])(=O)=O,water,298,-0.630380903,mol/L,1470.0020000000002,-14.92079999999998,551.5799999999999,6.0,34.0
[Li+].[Li+].[O-]C(=O)CCCCC([O-])=O,water,298,0.336615044,mol/L,158.008,-7.945400000000004,80.25999999999999,0.0,4.0
[Li+].[Li+].[O-]C(=O)CCCCCCCCC([O-])=O,water,298,0.204644999,mol/L,214.11599999999996,-6.384999999999998,80.25999999999999,0.0,4.0
[Li+].[Li+].[O-]C(=O)CCCCCCCC([O-])=O,water,298,0.234070906,mol/L,200.08899999999997,-6.7751,80.25999999999999,0.0,4.0
[Li+].[Li+].[O-][S]([O-])(=O)=O,water,298,0.492850622,mol/L,109.945,-7.329999999999999,80.25999999999999,0.0,4.0
[Br-].C[P+](c1ccccc1)(c2ccccc2)c3ccccc3,water,298,-0.018923033,mol/L,357.2310000000001,0.6143000000000012,0.0,0.0,0.0
[Cl-].[K+],water,298,0.661572633,mol/L,74.551,-5.992,0.0,0.0,0.0
[Cl-].C[n+]1ccccc1,water,298,0.420182889,mol/L,129.58999999999997,-2.484899999999998,3.88,0.0,0.0
[Na+].[Na+].[Na+].NC(=O)Nc1cc(Nc2nc(F)nc(NCCOCC[S](=O)(=O)C=C)n2)ccc1N=Nc3cc4c(cc(cc4[S]([O-])(=O)=O)[S]([O-])(=O)=O)cc3[S]([O-])(=O)=O,water,298,-0.414559724,mol/L,885.7560000000004,-7.475400000000016,357.54,4.0,20.0
CCc1nccnc1C,water,298,0.444510788,mol/L,122.17099999999998,1.34742,25.78,0.0,2.0
[H+].[Cl-].NO,water,298,0.689550356,mol/L,69.491,-3.5492,46.25,2.0,2.0
CCCC#N,water,298,-0.305495934,mol/L,69.107,1.31008,23.79,0.0,1.0
OCCN(CCO)c1ccccc1,water,298,-0.725487693,mol/L,181.235,0.47759999999999986,43.7,2.0,3.0
C=CC(=O)NCNC(=O)C=C,water,298,-0.655242676,mol/L,154.16899999999998,-0.4517000000000002,58.2,2.0,2.0
CC[C@H](C)[C@H](N)C(O)=O,water,298,-0.586372156,mol/L,131.17499999999998,0.44439999999999996,63.32,2.0,2.0
Nc1ccc(N)cc1,water,298,-0.502523512,mol/L,108.144,0.8510000000000002,52.04,2.0,2.0
[Na+].[Na+].[Na+].[Na+].CCN(c1ccccc1)c2nc(Cl)nc(Nc3cc(cc4cc(c(N=Nc5ccc6c(cccc6[S]([O-])(=O)=O)c5[S]([O-])(=O)=O)c(O)c34)[S]([O-])(=O)=O)[S]([O-])(=O)=O)n2,water,298,-0.449447907,mol/L,954.2180000000004,-7.51360000000001,327.68999999999994,2.0,20.0
[Na+].[O-][N+](=O)c1cccc(c1)[S]([O-])(=O)=O,water,298,0.173853824,mol/L,225.15699999999995,-2.4970999999999988,100.34,0.0,5.0
OC[C@H](O)[C@@H](O)[C@H](O)C(=O)C(O)=O,water,298,0.237320765,mol/L,194.13899999999998,-3.2849,135.29000000000002,5.0,6.0
C[N+]1([O-])CCOCC1,water,298,0.456309929,mol/L,117.14800000000001,-0.039000000000000146,32.29,0.0,2.0
[NH3+]CCO.[NH3+]CCO.[NH3+]CCO.OC(CC([O-])=O)(CC([O-])=O)C([O-])=O,water,298,-0.050160116,mol/L,375.37500000000017,-10.590800000000009,284.22999999999996,7.0,10.0
[Na+].NCCNCC[S]([O-])(=O)=O,water,298,0.244535954,mol/L,190.2,-4.9160999999999975,95.25,2.0,5.0
[Na+].[Na+].[Na+].Cc1cc(N=Nc2cc(ccc2[S]([O-])(=O)=O)[S]([O-])(=O)=O)c(C)cc1N=Nc3ccc(Nc4nc(N)nc(Cl)n4)c5c3cccc5[S]([O-])(=O)=O,water,298,-0.386945691,mol/L,814.1269999999998,-3.8240599999999976,297.76,2.0,18.0
[K+].[O-][S](=O)(=O)CCCOC(=O)C=C,water,298,1.156268325,mol/L,232.29799999999994,-3.345099999999997,83.5,0.0,5.0
[Na+].[Na+].[Na+].Cc1c(Nc2nc(Cl)nc(Nc3cccc(c3)[S]([O-])(=O)=O)n2)c(C)c(c(C)c1Nc4cc(c(N)c5C(=O)c6ccccc6C(=O)c45)[S]([O-])(=O)=O)[S]([O-])(=O)=O,water,298,-0.424427985,mol/L,882.1980000000001,-5.237039999999996,306.5199999999999,4.0,18.0
[Na+].[Na+].[Na+].Cc1c(Nc2nc(Cl)nc(Nc3ccccc3[S]([O-])(=O)=O)n2)c(C)c(c(C)c1Nc4cc(c(N)c5C(=O)c6ccccc6C(=O)c45)[S]([O-])(=O)=O)[S]([O-])(=O)=O,water,298,-0.424427985,mol/L,882.1980000000001,-5.237039999999996,306.5199999999999,4.0,18.0
COCOC,water,298,0.637157819,mol/L,76.095,0.23670000000000002,18.46,0.0,2.0
[Cl-].[K+],water,298,0.646060467,mol/L,74.551,-5.992,0.0,0.0,0.0
OCCN(CCO)c1ccccc1,water,298,-0.733197265,mol/L,181.235,0.47759999999999986,43.7,2.0,3.0
Nc1ccc(F)cc1,water,298,-0.527274385,mol/L,111.119,1.4079,26.02,1.0,1.0
[Cl].[Fe].[O-][S]([O-])(=O)=O,water,298,0.243194648,mol/L,187.361,-0.6509999999999998,80.25999999999999,0.0,4.0
[Cl-].[Cl-].[Cl-].[Fe+3],water,298,0.305812284,mol/L,162.204,-8.990499999999999,0.0,0.0,0.0
[Fe++].[O-][S]([O-])(=O)=O,water,298,0.334293198,mol/L,151.908,-1.3405,80.25999999999999,0.0,4.0
C1N(CCOC1)C2=NC(=NC(=N2)NC3=C4C(=O)/C(=N/NC5=CC=CC=C5)/C(=CC4=CC(=C3)S(=O)(=O)[O-])S(=O)(=O)[O-])NC6=CC(=C(C=C6)/C=C/C7=C(C=C(C=C7)NC8=NC(=NC(=N8)N9CCOCC9)NC1=C2C(=O)/C(=N/NC3=CC=CC=C3)/C(=CC2=CC(=C1)S(=O)(=O)[O-])S(=O)(=O)[O-])S(=O)(=O)[O-])S(=O)(=O)[O-].[Na+].[Na+].[Na+].[Na+].[Na+].[Na+],water,298,-1.144796153,mol/L,1673.4599999999998,-14.383999999999965,576.52,6.0,38.0
CC(=O)C1CCOC1=O,water,298,0.397509321,mol/L,128.127,0.13850000000000007,43.370000000000005,0.0,3.0
CC(=O)NNC(C)=O,water,298,0.440242951,mol/L,116.11999999999999,-0.8264,58.2,2.0,2.0
OCCN(CCO)c1ccccc1,water,298,-0.742368228,mol/L,181.235,0.47759999999999986,43.7,2.0,3.0
[Na+].COC(=O)c1cc(cc(c1)[S]([O-])(=O)=O)C(=O)OC,water,298,-0.966481992,mol/L,296.232,-2.832099999999998,109.8,0.0,7.0
COC(C)=O,water,298,0.634095572,mol/L,74.079,0.17930000000000001,26.3,0.0,2.0
[Na+].[Cl-],water,298,0.734326761,mol/L,58.443,-5.992,0.0,0.0,0.0
[Li+].[Li+].[O-]C(=O)CCCC([O-])=O,water,298,0.342754077,mol/L,143.981,-8.335500000000003,80.25999999999999,0.0,4.0
CC1OC(=C(O)C1=O)C,water,298,0.390669896,mol/L,128.12699999999995,0.7636999999999998,46.53,1.0,3.0
[Na+].COc1cc(O)c(cc1[S]([O-])(=O)=O)C(=O)c2ccccc2,water,298,-0.022384851,mol/L,330.293,-1.4600999999999982,103.72999999999999,1.0,6.0
[Li+].CC([O-])=O,water,298,0.674709373,mol/L,65.985,-4.2398,40.129999999999995,0.0,2.0
CC(C)OC(C)=O,water,298,-0.505375406,mol/L,102.133,0.9579,26.3,0.0,2.0
CC(C)C(O)C(C)(C)CO,water,298,-0.666725926,mol/L,146.23,1.0218,40.46,2.0,2.0
COC(C)(C)C,water,298,-0.453860623,mol/L,88.14999999999999,1.4313,9.23,0.0,1.0
Nc1ccccc1N,water,298,-0.542640735,mol/L,108.144,0.851,52.04,2.0,2.0
Nc1ccc(N)cc1,water,298,-0.542640735,mol/L,108.144,0.8510000000000002,52.04,2.0,2.0
Oc1ccccc1C#N,water,298,-0.584633928,mol/L,119.12299999999999,1.2638800000000001,44.019999999999996,1.0,2.0
CCC=O,water,298,0.721694819,mol/L,58.08,0.5952999999999999,17.07,0.0,1.0
CCN1CCOCC1,water,298,0.420080637,mol/L,115.176,0.3385,12.47,0.0,2.0
CCCCC(CC)COC(=O)[C@H](C)O,water,298,-2.67352571,mol/L,202.29399999999998,2.1268000000000007,46.53,1.0,3.0
O=C1CCCC1,water,298,0.553677557,mol/L,84.11800000000001,1.1295,17.07,0.0,1.0
[H+].[Cl-].CNC,water,298,1.565718592,mol/L,81.546,-3.0478999999999985,12.03,1.0,1.0
S.[Mn],water,298,-4.159911756,mol/L,89.021,0.11030000000000006,0.0,0.0,0.0
COC=O,water,298,0.698593779,mol/L,60.05200000000001,-0.2108000000000001,26.3,0.0,2.0
[Na+].[Na+].[Na+].Oc1cc(c2ccc3c4c(ccc1c24)c(cc3[S]([O-])(=O)=O)[S]([O-])(=O)=O)[S]([O-])(=O)=O,water,298,-0.242535631,mol/L,524.3930000000003,-7.986100000000003,191.82999999999998,1.0,10.0
CC(C)OC(C)=O,water,298,-0.519207609,mol/L,102.133,0.9579,26.3,0.0,2.0
CC1C=CCC2C1C(=O)OC2=O,water,298,-0.736268462,mol/L,166.176,0.8982,43.370000000000005,0.0,3.0
CC(C)NC(=O)C(C)=C,water,298,-0.620142884,mol/L,127.18699999999998,1.0871,29.1,1.0,1.0
[Na+].[Na+].OCCNc1nc(Nc2ccccc2)nc(Nc3ccc(\C=C\c4ccc(Nc5nc(NCCO)nc(Nc6ccccc6)n5)cc4[S]([O-])(=O)=O)c(c3)[S]([O-])(=O)=O)n1,water,298,-1.4592144,mol/L,872.8580000000002,-2.173999999999989,304.38,8.0,20.0
CCOCCOC(C)(C)C,water,298,-0.687915225,mol/L,146.23,1.838,18.46,0.0,2.0
COC(C)CCOC(C)=O,water,298,-0.687784528,mol/L,146.18599999999998,0.9744999999999999,35.53,0.0,3.0
[Na+].CCCCCCCCCCCCCCCO[S]([O-])(=O)=O,water,298,-1.042005529,mol/L,330.46599999999995,1.5583999999999996,66.43,0.0,4.0
NC(=N)[S](O)=O,water,298,-0.556792816,mol/L,108.12199999999999,-0.8984299999999998,87.17000000000002,3.0,2.0
NC1CCC(CC1)CC2CCC(N)CC2,water,298,-1.723090413,mol/L,210.36499999999995,2.4115,52.04,2.0,2.0
CC(C)C(=O)OOC(C)(C)C,water,298,-1.607002567,mol/L,160.21299999999997,1.9157,35.53,0.0,3.0
COC(Cc1ccccc1)OC,water,298,-1.629618671,mol/L,166.21999999999997,1.8479999999999999,18.46,0.0,2.0
Nc1nc(N)nc(N)n1.O[P](O)(O)=O,water,298,-1.759410193,mol/L,224.11700000000002,-2.3103999999999996,194.48999999999995,6.0,7.0
C1OCC2Cc3ccccc3C2O1,water,298,-1.656093273,mol/L,176.21499999999997,1.9043,18.46,0.0,2.0
COc1cc(CC(C(C)=O)C(C)=O)ccc1O,water,298,-1.786365949,mol/L,236.267,1.7374999999999998,63.60000000000001,1.0,4.0
[Al+3].CCCC[O-].CCCC[O-].CCCC[O-],water,298,-1.806051288,mol/L,246.3269999999999,0.059600000000002096,69.17999999999999,0.0,3.0
CCCCNCCCC,water,298,-1.531636875,mol/L,129.24699999999999,2.1761999999999997,12.03,1.0,1.0
NO,water,298,-0.939124977,mol/L,33.03,-0.6657000000000002,46.25,2.0,2.0
CCOc1nc(NC)nc(NC(=O)N[S](=O)(=O)c2ccccc2C(=O)OC)n1,water,298,-2.038032206,mol/L,410.4120000000002,0.6089999999999994,161.5,3.0,10.0
OC[C@H]1NC[C@H](O)[C@@H](O)[C@@H]1O,water,298,0.404352043,mol/L,163.173,-2.9667999999999988,92.95,5.0,5.0
CCOC(=O)C(Cl)C(=O)OCC,water,298,-1.720972355,mol/L,194.61399999999998,0.7199999999999999,52.60000000000001,0.0,4.0
[Na+].[O-][S](=O)(=O)C1=CC(=O)C2=C(NNc3ccccc3C(F)(F)F)C(=N)C=CC2=C1,water,298,-2.068630062,mol/L,433.3430000000001,-0.5922299999999978,122.18,3.0,7.0
CC(=C)C(=O)OCCOCCOCCOC(=O)C(C)=C,water,298,-1.900555252,mol/L,286.324,1.2582,71.06,0.0,6.0
CC1CC(CCC1N)CC2CCC(N)C(C)C2,water,298,-1.821038361,mol/L,238.41899999999998,2.903500000000001,52.04,2.0,2.0
OC[C@H]1NC[C@H](O)[C@@H](O)[C@@H]1O,water,298,0.401193524,mol/L,163.173,-2.9667999999999988,92.95,5.0,5.0
Cc1ccc(C)c(O)c1,water,298,-1.537582757,mol/L,122.16699999999999,2.0090399999999997,20.23,1.0,1.0
Nc1ncnc2n(cnc12)C3OC(CO[P](O)(O)=O)C(O)C3O,water,298,-1.995302619,mol/L,347.224,-1.8630000000000004,186.07,5.0,10.0
ClCC(Cl)Cl,water,298,-1.581104063,mol/L,133.405,2.0289,0.0,0.0,0.0
Cc1cc(O)c(C)c(C)c1O,water,298,-1.638326634,mol/L,152.19299999999998,2.0230600000000005,40.46,2.0,2.0
CCCCCCCCCCCCCCCCN,water,298,-1.838782548,mol/L,241.4629999999999,5.4264000000000046,26.02,1.0,1.0
Nc1ccc(cc1)[S](=O)(=O)CCO[S](O)(=O)=O,water,298,-1.90511867,mol/L,281.311,-0.13809999999999972,123.75999999999999,2.0,6.0
CCCCCCCCCCCCN,water,298,-1.723936261,mol/L,185.35499999999996,3.8660000000000023,26.02,1.0,1.0
CCCCCCCCCCCCCCCCCCN,water,298,-1.88651812,mol/L,269.5169999999999,6.206600000000005,26.02,1.0,1.0
C=CCN1C(=O)N(CC=C)C(=O)N(CC=C)C1=O,water,298,-1.852601969,mol/L,249.26999999999995,-0.27030000000000043,66.0,0.0,6.0
COC(=O)c1nccnc1N,water,298,-1.642266052,mol/L,153.141,-0.15459999999999996,78.1,1.0,5.0
Nc1nc(N)nc(N)n1,water,298,-1.559215049,mol/L,126.12300000000002,-1.3818000000000001,116.72999999999999,3.0,6.0
OC(=O)c1ccccc1,water,298,-1.54646799,mol/L,122.12299999999996,1.3848,37.3,1.0,1.0
NC(N)=N[N+]([O-])=O,water,298,-1.485842464,mol/L,104.06899999999999,-1.5484999999999998,107.54000000000002,2.0,2.0
Nc1ccccc1C(F)(F)F,water,298,-1.675686709,mol/L,161.12599999999998,2.2876000000000003,26.02,1.0,1.0
CC(=O)N1CCN(CC1)c2ccc(O)cc2,water,298,-1.817914488,mol/L,220.27200000000005,1.0606999999999998,43.78,1.0,3.0
C1OC1COc2ccc(cc2)N(CC3CO3)CC4CO4,water,298,-1.919234725,mol/L,277.32,1.0681999999999998,50.06,0.0,5.0
NN=C(N)N.OC(O)=O,water,298,-1.615379285,mol/L,136.111,-1.6441,147.95,5.0,3.0
CCC(C)(C)Cl,water,298,-1.509226968,mol/L,106.59599999999999,2.4138,0.0,0.0,0.0
OC(=O)CCCCCNc1nc(NCCCCCC(O)=O)nc(NCCCCCC(O)=O)n1,water,298,-2.152246637,mol/L,468.5550000000003,3.0423,186.65999999999997,6.0,9.0
CNCc1cccc2ccccc12,water,298,-1.715098888,mol/L,171.24299999999997,2.5592000000000006,12.03,1.0,1.0
COc1ccccc1NC(=O)CC(C)=O,water,298,-1.805905521,mol/L,207.22899999999996,1.6127999999999998,55.4,1.0,3.0
Cc1ccc(C)c(O)c1,water,298,-1.584526789,mol/L,122.16699999999999,2.0090399999999997,20.23,1.0,1.0
CC(C)Br,water,298,-1.587453275,mol/L,122.993,1.7897,0.0,0.0,0.0
CC(C)Br,water,298,-1.591569841,mol/L,122.993,1.7897,0.0,0.0,0.0
CC(C)OC(C)C,water,298,-1.516592758,mol/L,102.17699999999999,1.8197999999999999,9.23,0.0,1.0
CC(C)(O)c1cccc(c1)C(C)(C)O,water,298,-1.797052988,mol/L,194.27399999999997,2.1414000000000004,40.46,2.0,2.0
CC(C)Br,water,298,-1.598518701,mol/L,122.993,1.7897,0.0,0.0,0.0
Cc1ccc(cc1)[S](N)(=O)=O,water,298,-1.742195335,mol/L,171.22099999999998,0.6424200000000001,60.160000000000004,1.0,2.0
Cc1cc2NC(=O)Nc2cc1N,water,298,-1.721305235,mol/L,163.18,0.74682,74.67,3.0,2.0
CCSCC,water,298,-1.468024827,mol/L,90.191,1.7593999999999999,0.0,0.0,1.0
CCSCC,water,298,-1.468591052,mol/L,90.191,1.7593999999999999,0.0,0.0,1.0
CC(C)=CCCC(C)=O,water,298,-1.621048971,mol/L,126.199,2.3218000000000005,17.07,0.0,1.0
Nc1nc(N)nc(N)n1.O[P](O)(O)=O,water,298,-1.873353546,mol/L,224.11700000000002,-2.3103999999999996,194.48999999999995,6.0,7.0
CCCCOCCOCCOCCCC,water,298,-1.862006084,mol/L,218.33699999999993,2.636400000000001,27.69,0.0,3.0
NC(N)=N[N+]([O-])=O,water,298,-1.540200127,mol/L,104.06899999999999,-1.5484999999999998,107.54000000000002,2.0,2.0
CC1CCC(C(O)C1)C(C)=C,water,298,-1.711112365,mol/L,154.25299999999996,2.3596000000000004,20.23,1.0,1.0
COc1ccc(C)cc1N,water,298,-1.660175876,mol/L,137.18199999999996,1.58582,35.25,1.0,2.0
OC(=O)c1cc(C(O)=O)c(cc1C(O)=O)C(O)=O.C2CN=C(N2)c3ccccc3,water,298,-2.125310985,mol/L,400.34300000000013,1.5157999999999996,173.59,5.0,6.0
Nc1ccc(Cl)cc1,water,298,-1.628640918,mol/L,127.574,1.9222,26.02,1.0,1.0
CCC(C)CC(=O)CC,water,298,-1.630817582,mol/L,128.21499999999997,2.401700000000001,17.07,0.0,1.0
CC(=O)CC(=O)Nc1ccccc1C,water,298,-1.80443477,mol/L,191.23,1.91262,46.17,1.0,2.0
[Al+3].CC([O-])=CC(C)=O.CC([O-])=CC(C)=O.CC([O-])=CC(C)=O,water,298,-2.033837746,mol/L,324.309,-0.862299999999999,120.38999999999999,0.0,6.0
O=Cc1ccccc1,water,298,-1.548692356,mol/L,106.12399999999997,1.4990999999999999,17.07,0.0,1.0
FC(F)Cl,water,298,-1.459734159,mol/L,86.468,1.4478,0.0,0.0,0.0
s1cccc1,water,298,-1.447896737,mol/L,84.143,1.7481,0.0,0.0,1.0
[Na+].[K+].CC1=NN(C(O)C1N=Nc2ccc3c(cccc3[S]([O-])(=O)=O)c2[S](O)(=O)=O)c4ccc(cc4)[S](=O)(=O)CCO[S]([O-])(=O)=O,water,298,-0.392839827,mol/L,738.7730000000003,-5.0840999999999905,272.68999999999994,2.0,16.0
OCC(Br)(CO)[N+]([O-])=O,water,298,0.173212327,mol/L,199.988,-0.6611,83.6,2.0,4.0
OCC#CCO,water,298,1.536339003,mol/L,86.08999999999999,-1.0256,40.46,2.0,2.0
[Na+].[Na+].[Na+].CCN(c1ccccc1)c2nc(Cl)nc(Nc3cc(cc4C=C(\C(=N/Nc5ccc6ccccc6c5[S]([O-])(=O)=O)C(=O)c34)[S]([O-])(=O)=O)[S]([O-])(=O)=O)n2,water,298,-0.459235549,mol/L,852.1720000000004,-5.049499999999996,266.99999999999994,2.0,17.0
[Cl].[Fe].[O-][S]([O-])(=O)=O,water,298,0.19714282,mol/L,187.361,-0.6509999999999998,80.25999999999999,0.0,4.0
[Cl-].[Cl-].[Cl-].[Fe+3],water,298,0.259760456,mol/L,162.204,-8.990499999999999,0.0,0.0,0.0
[Fe++].[O-][S]([O-])(=O)=O,water,298,0.28824137,mol/L,151.908,-1.3405,80.25999999999999,0.0,4.0
[Na+].[Na+].[Na+].[Na+].[O-][P]([O-])(=O)O[P]([O-])([O-])=O,water,298,0.04214765,mol/L,265.90099999999995,-15.3236,135.61,0.0,7.0
[Na+].Oc1ccc(cc1NNC2=CC=C3C(=O)C=CC=C3C2=O)[S]([O-])(=O)=O,water,298,-0.901196004,mol/L,382.3290000000001,-2.3248999999999986,135.63,3.0,8.0
OC(=O)CCC(N(CC(O)=O)CC(O)=O)C(O)=O,water,298,0.043603804,mol/L,263.202,-1.2243999999999988,152.44,4.0,5.0
OCC(Br)(CO)[N+]([O-])=O,water,298,0.161394061,mol/L,199.988,-0.6611,83.6,2.0,4.0
COC(=O)CCCCC(=O)OC,water,298,-0.76536699,mol/L,174.196,0.8927999999999998,52.60000000000001,0.0,4.0
CN1[C@@H]2CC(C[C@H]1C3OC23)OC(=O)[C@H](CO)c4ccccc4,water,298,-1.007447813,mol/L,303.358,0.9180999999999993,62.3,1.0,5.0
CC(=C)OC(C)=O,water,298,-0.527751378,mol/L,100.11699999999999,1.0831,26.3,0.0,2.0
O=C1OC(=O)C2CC=CCC12,water,298,-0.713921772,mol/L,152.14899999999997,0.6521999999999999,43.370000000000005,0.0,3.0
Cc1[nH]nc(C)c1,water,298,-0.520474498,mol/L,96.13299999999998,1.02654,28.68,1.0,1.0
CC(=C)C#N,water,298,-0.364266267,mol/L,67.09100000000001,1.08608,23.79,0.0,1.0
[Ca++].CCC([O-])=O.CCC([O-])=O,water,298,0.19087152,mol/L,186.21999999999994,-2.0881999999999987,80.25999999999999,0.0,4.0
[Na+].CCCCCCCCCCCCO[S]([O-])(=O)=O,water,298,-0.00058018,mol/L,288.385,0.38809999999999967,66.43,0.0,4.0
OCC(Br)(CO)[N+]([O-])=O,water,298,0.155362096,mol/L,199.988,-0.6611,83.6,2.0,4.0
[K+].[K+].CCCCCCCCCCCCCC(=O)NCC([O-])=O.CCCCCCCCCCCC(=O)NCC([O-])=O,water,298,-0.3429717,mol/L,618.9820000000003,-1.6649999999999934,138.45999999999998,2.0,6.0
Cc1[nH]nc(C)c1,water,298,-0.521974653,mol/L,96.13299999999998,1.02654,28.68,1.0,1.0
Cc1[nH]nc(C)c1,water,298,-0.523480008,mol/L,96.13299999999998,1.02654,28.68,1.0,1.0
CCC12CC[C@H]3[C@@H](CCC4=CC(=O)CC[C@H]34)[C@@H]1CCC2=O,water,298,-3.732719889,mol/L,286.415,4.087400000000003,34.14,0.0,2.0
N[C@@H](CO[P](O)(O)=O)C(O)=O,water,298,-0.814940872,mol/L,185.07199999999997,-1.4924000000000002,130.08,4.0,4.0
Oc1ccc(Cl)cc1,water,298,-0.661941076,mol/L,128.558,2.0456,20.23,1.0,1.0
[Na+].CCCCC(CC)CCCCCc1ccc(cc1)[S]([O-])(=O)=O,water,298,-0.096905651,mol/L,348.48400000000004,1.913999999999999,57.199999999999996,0.0,3.0
[Na+].[Na+].[Na+].[Na+].[Na+].[Na+].OCCN(CCO)c1nc(Nc2ccc(\C=C\c3ccc(Nc4nc(Nc5cc(ccc5[S]([O-])(=O)=O)[S]([O-])(=O)=O)nc(n4)N(CCO)CCO)cc3[S]([O-])(=O)=O)c(c2)[S]([O-])(=O)=O)nc(Nc6cc(ccc6[S]([O-])(=O)=O)[S]([O-])(=O)=O)n1,water,298,-0.6924056,mol/L,1369.1480000000001,-19.767999999999937,556.06,8.0,34.0
[Cs+].[Cs+].[O-]C([O-])=O,water,298,0.930068755,mol/L,325.8180000000001,-8.439,63.19,0.0,3.0
[Na+].[O-][N+](=O)c1cccc(c1)[S]([O-])(=O)=O,water,298,0.089994316,mol/L,225.15699999999995,-2.4970999999999988,100.34,0.0,5.0
O.O.[Cl-].[Cl-].[Ba++],water,298,0.053049617,mol/L,244.264,-8.0222,63.0,0.0,0.0
CC(C)(CO)COC(=O)C(C)(C)CO,water,298,0.127554478,mol/L,204.26599999999996,0.5665999999999998,66.76,2.0,4.0
CCCCl,water,298,1.537867335,mol/L,78.542,1.6352,0.0,0.0,0.0
CC(C)(CO)COC(=O)C(C)(C)CO,water,298,0.12116768,mol/L,204.26599999999996,0.5665999999999998,66.76,2.0,4.0
CC(C)(C)C(O)=O,water,298,-0.563561886,mol/L,102.13299999999998,1.1171,37.3,1.0,1.0
CC1(C)CC(O)CC(C)(C)N1CCO,water,298,-0.859820553,mol/L,201.30999999999997,0.9925999999999999,43.7,2.0,3.0
CCN(CC)CC#C,water,298,-0.602013123,mol/L,111.18799999999999,0.9614,3.24,0.0,1.0
[Co++].OC(=O)CC(O)(CC([O-])=O)C([O-])=O,water,298,-0.954573972,mol/L,249.03999999999996,-3.920399999999999,137.79,2.0,6.0
[Co++].[Co++].[Co++].OC(CC([O-])=O)(CC([O-])=O)C([O-])=O.OC(CC([O-])=O)(CC([O-])=O)C([O-])=O,water,298,-1.3025955,mol/L,554.9970000000005,-10.512700000000002,281.23999999999995,2.0,14.0
S=C1NCCN1,water,298,-0.571538824,mol/L,102.162,-0.5359000000000003,24.06,2.0,1.0
Oc1ccc(Cl)cc1,water,298,-0.676129817,mol/L,128.558,2.0456,20.23,1.0,1.0
NC(Cc1ccccc1)C(O)=O,water,298,-0.785821742,mol/L,165.19199999999995,0.641,63.32,2.0,2.0
OCCOc1ccccc1,water,298,-0.709037421,mol/L,138.16599999999997,1.0576999999999999,29.46,1.0,2.0
Oc1ccc(Cl)cc1,water,298,-0.677735343,mol/L,128.558,2.0456,20.23,1.0,1.0
O.O.[Cl-].[Cl-].[Ba++],water,298,0.041892815,mol/L,244.264,-8.0222,63.0,0.0,0.0
OCC(Br)(CO)[N+]([O-])=O,water,298,0.127130857,mol/L,199.988,-0.6611,83.6,2.0,4.0
[SH--].[Cu+].[Cu+],water,298,-4.204573041,mol/L,160.167,-0.2751,0.0,0.0,0.0
Cc1[nH]ccn1,water,298,0.512136367,mol/L,82.10600000000001,0.7181199999999999,28.68,1.0,1.0