Solute,Solvent,Temperature_K,Solubility,Units,MW,LogP,TPSA,HBD,HBA
CCCCCCCCCCCCCC(=O)OCC(O)CO,water,298,-7.397875398,mol/L,302.455,3.583900000000002,66.76,2.0,4.0
CCN(CC)c1ccc2C=C(C(=O)Oc2c1)c3oc4ccc(Cl)cc4n3,water,298,-7.487633218,mol/L,368.82000000000005,5.100800000000003,59.480000000000004,0.0,5.0
[Cu++].[O-]c1ccccc1N=Cc2c([O-])ccc3ccccc23,water,298,-7.432469538,mol/L,324.8260000000001,2.735100000000001,58.480000000000004,0.0,3.0
O=[Pb]=O,water,298,-7.325679101,mol/L,239.19799999999998,-0.6184000000000001,34.14,0.0,2.0
CCCCCCCCCOC(=O)c1ccc(C(=O)OCCCCCCCCC)c(c1)C(=O)OCCCCCCCCC,water,298,-6.757182205,mol/L,588.8700000000002,10.408799999999994,78.90000000000002,0.0,6.0
CCO[Si](CC(C)CC(C)(C)C)(OCC)OCC,water,298,-6.441684141,mol/L,276.493,4.1071000000000035,27.69,0.0,3.0
Cc1ccc(Cl)cc1N\N=C2\C(=O)C(=Cc3ccccc23)C(=O)Nc4cc(C)c(NC(=O)C5=Cc6ccccc6C(=N/Nc7cc(Cl)ccc7C)/C5=O)cc4C,water,298,-7.678196264,mol/L,781.6999999999999,9.069080000000001,141.12,4.0,8.0
O=C1c2ccccc2C(=O)c3c(Nc4nc(Nc5cccc6C(=O)c7ccccc7C(=O)c56)nc(n4)c8ccccc8)cccc13,water,298,-7.77786597,mol/L,599.6060000000003,6.576600000000004,131.01,2.0,9.0
CNC(=O)/C(C#N)=C/1NC(c2ccccc12)=C3C(=O)NC(=O)NC3=O,water,298,-7.528009903,mol/L,337.2950000000001,-1.8951199999999986,143.95,4.0,5.0
CC\1=NN2C(=O)c3ccccc3N=C2C1=N/Nc4ccc(Cl)cc4[N+]([O-])=O,water,298,-7.582934488,mol/L,382.76700000000005,3.0119000000000007,114.78,1.0,8.0
O=C1NC(=O)C(C(=O)N1)=C2NC(c3ccccc23)=C4C(=O)NC(=O)NC4=O,water,298,-7.564993732,mol/L,367.2770000000001,-2.7986999999999984,166.32999999999998,5.0,6.0
CC(C)(C)c1ccc2oc(nc2c1)c3sc(cc3)c4oc5ccc(cc5n4)C(C)(C)C,water,298,-7.634046793,mol/L,430.5730000000002,7.959500000000005,52.06,0.0,5.0
CC(=O)OC/C=C(C)/C=C/C=C(C)/C=C/C1=C(C)CCCC1(C)C,water,298,-7.516530086,mol/L,328.4960000000002,6.081100000000006,26.3,0.0,2.0
CCC(=O)OC/C=C(C)/C=C/C=C(C)/C=C/C1=C(C)CCCC1(C)C,water,298,-7.534689739,mol/L,342.5230000000002,6.471200000000007,26.3,0.0,2.0
[Ba++].Cc1cc(N\N=C\2C(=O)C=Cc3ccccc23)c(cc1Cl)[S]([O-])(=O)=O.Cc4cc(N\N=C\5C(=O)C=Cc6ccccc56)c(cc4Cl)[S]([O-])(=O)=O,water,298,-7.948879289,mol/L,888.954,5.548440000000005,197.32,2.0,12.0
[H+].[Mn++].[O-]C(=O)c1cc2ccccc2c(N=Nc3ccc4ccccc4c3[S]([O-])(=O)=O)c1[O-],water,298,-7.677004362,mol/L,475.3400000000002,2.8596000000000013,145.10999999999999,0.0,8.0
CC(=C\CO)/C=C/C=C(C)/C=C/C1=C(C)CCCC1(C)C,water,298,-7.457062472,mol/L,286.459,5.510300000000005,20.23,1.0,1.0
CCCCCCCCCCCCCC(=O)OCC(COC(=O)CCCCCCCCCCCCC)OC(=O)CCCCCCCCCCCCC,water,298,-8.647057001,mol/L,723.1769999999998,14.087899999999973,78.9,0.0,6.0
[Be]=O,water,298,-7.255116256,mol/L,25.011000000000003,-0.49960000000000004,17.07,0.0,1.0
CCCCCC1CCC(CC1)c2ccc(CCC)cc2,water,298,-6.772570424,mol/L,272.47599999999994,6.493200000000007,0.0,0.0,0.0
CCC(C)(C)c1cc(n2nc3ccccc3n2)c(O)c(c1)C(C)(C)CC,water,298,-8.545917916,mol/L,351.49400000000014,5.501300000000006,50.94,1.0,4.0
CC(=O)C(N=Nc1ccc(c(Cl)c1)c2ccc(N=NC(C(C)=O)C(=O)NN)c(Cl)c2)C(=O)NN,water,298,-8.705297393,mol/L,507.33800000000025,2.7228,193.82,4.0,10.0
CCCCC(CC)COC(=O)CC(C)CC(C)(C)C,water,298,-8.432098226,mol/L,270.45699999999994,5.2084000000000055,26.3,0.0,2.0
O=C1c2ccccc2C(=O)c3c4[nH]c5c(ccc6C(=O)c7c8[nH]c9c(ccc%10C(=O)c%11ccccc%11C(=O)c9%10)c8ccc7C(=O)c56)c4ccc13,water,298,-8.810645103,mol/L,646.6140000000001,6.349400000000005,133.99999999999997,2.0,6.0
[O--].[O--].[O--].[O--].[O--].[Al+3].[Al+3].[Co++].[Co++],water,298,-8.401098843,mol/L,251.825,-1.3605999999999998,142.5,0.0,0.0
[O--].[O--].[O--].[O--].[V].[Bi+3],water,298,-8.510435082,mol/L,323.91999999999996,-0.8585,114.0,0.0,0.0
O.[O--].[O--].[O--].[Fe+3].[Fe+3],water,298,-8.249692316,mol/L,177.702,-1.1861,117.0,0.0,0.0
CCCCCCCCCCCCOC(=O)C(C)=C,water,298,-8.405541006,mol/L,254.41399999999993,5.026600000000005,26.3,0.0,2.0
[Nb],water,298,-7.968043762,mol/L,92.906,-0.0025,0.0,0.0,0.0
CCCCCCCCCCCCCCCCCCOC(=O)C(C)=C,water,298,-8.52965617,mol/L,338.576,7.367200000000008,26.3,0.0,2.0
CCCCCCCCCCCCCCCCCCOC(=O)CCc1cc(c(O)c(c1)C(C)(C)C)C(C)(C)C,water,298,-8.724994728,mol/L,530.8780000000003,10.724499999999992,46.53,1.0,3.0
O=[Ti]=O,water,298,-7.902356496,mol/L,79.865,-0.2401,34.14,0.0,2.0
Oc1ccc(Nc2ccccc2)c3C(=O)c4c(c(O)ccc4[N+]([O-])=O)C(=O)c13,water,298,-8.646142991,mol/L,376.3240000000001,3.5250000000000012,129.77,3.0,7.0
[Na+].Oc1ccc(cc1)[S]([O-])(=O)=O,water,298,-8.363189313,mol/L,196.15899999999993,-2.699699999999999,77.43,1.0,4.0
CCCCCCCCCCCCCCCCOC(=O)CCCCCCCCCCCCCCC,water,298,-8.754650095,mol/L,480.86200000000053,11.492199999999986,26.3,0.0,2.0
CC(C)(C)c1ccc2OC(=O)C(c2c1)c3cc(ccc3OC(=O)c4cc(c(O)c(c4)C(C)(C)C)C(C)(C)C)C(C)(C)C,water,298,-8.848512617,mol/L,570.7700000000002,8.852300000000003,72.83,1.0,5.0
[Zr++].CCCCC(CC)C([O-])=O.CCCCC(CC)C([O-])=O,water,298,-8.702012126,mol/L,377.6360000000002,1.9028999999999998,80.25999999999999,0.0,4.0
CCCCCCCC\C=C/CCCCCCCCCCCC(N)=O,water,298,-8.660335785,mol/L,337.5920000000001,7.069600000000007,43.09,1.0,1.0
CN1C(=O)C(=N/Nc2cccc(O[S](=O)(=O)c3ccccc3)c2)\C(=C(C#N)C1=O)C,water,298,-8.782716219,mol/L,424.43800000000016,2.06088,128.92999999999998,1.0,8.0
[Be],water,298,-7.255851179,mol/L,9.012,-0.3808,0.0,0.0,0.0
[Nb],water,298,-8.269073758,mol/L,92.906,-0.0025,0.0,0.0,0.0
CCCCC(CC)C(=O)OCC(COC(=O)C(CC)CCCC)(COC(=O)C(CC)CCCC)COC(=O)C(CC)CCCC,water,298,-9.204759418,mol/L,640.9430000000001,9.011200000000004,105.20000000000002,0.0,8.0
[Au],water,298,-8.817272216,mol/L,196.967,-0.0025,0.0,0.0,0.0
COc1cc(N[S](=O)(=O)c2ccc(C)cc2)c3C(=O)c4ccccc4C(=O)c3c1N,water,298,-9.220953934,mol/L,422.4620000000002,3.162020000000001,115.55999999999999,2.0,6.0
[Zr++].CCCCC(CC)C([O-])=O.CCCCC(CC)C([O-])=O,water,298,-9.254854094,mol/L,377.6360000000002,1.9028999999999998,80.25999999999999,0.0,4.0
CCCCCCCC/C=C/CCCCCCCCO[P+](=O)OCCCCCCCC\C=C\CCCCCCCC,water,298,-9.534419587,mol/L,581.9270000000001,13.751999999999972,35.53,0.0,3.0
[Nb],water,298,-8.791952503,mol/L,92.906,-0.0025,0.0,0.0,0.0
O=[Ce]=O,water,298,-9.145911087,mol/L,172.114,-0.2376,34.14,0.0,2.0
Brc1c(Br)c(Br)c(Oc2c(Br)c(Br)c(Br)c(Br)c2Br)c(Br)c1Br,water,298,-9.98189604,mol/L,959.171,11.1039,9.23,0.0,1.0
CCCCC(CC)COC(=O)c1ccc(Nc2nc(Nc3ccc(cc3)C(=O)OCC(CC)CCCC)nc(Nc4ccc(cc4)C(=O)OCC(CC)CCCC)n2)cc1,water,298,-8.915448381,mol/L,823.0919999999999,12.221999999999984,153.65999999999997,3.0,12.0
[Zr+4].[Zr+4].[Zr+4].[O-][P]([O-])([O-])=O.[O-][P]([O-])([O-])=O.[O-][P]([O-])([O-])=O.[O-][P]([O-])([O-])=O,water,298,-9.815280148,mol/L,653.5520000000004,-11.305900000000001,345.0,0.0,16.0
CCCCCCCCCCCCCCCCCCC1CC(=O)N(CCNCCNCCNCCN2C(=O)CC(CCCCCCCCCCCCCCCCCC)C2=O)C1=O,water,298,-10.23471717,mol/L,858.394999999999,11.808599999999988,110.85,3.0,7.0
CCCCC(CC)COC(=O)c1c(Br)c(Br)c(Br)c(Br)c1C(=O)OCC(CC)CCCC,water,298,-10.14992573,mol/L,706.1479999999996,9.482999999999997,52.60000000000001,0.0,4.0
[Nb],water,298,-9.314831249,mol/L,92.906,-0.0025,0.0,0.0,0.0
ClCc1ccc(cc1)c2ccc(CCl)cc2,water,298,-10.09891356,mol/L,251.15599999999998,4.8312000000000035,0.0,0.0,0.0
CN(C(=S)SSC(=S)N(C)c1ccccc1)c2ccccc2,water,298,-10.56179999,mol/L,364.58600000000007,5.2104000000000035,6.48,0.0,4.0
CC(C)(C)CC(C)(C)c1cc(Cc2cc(cc(n3nc4ccccc4n3)c2O)C(C)(C)CC(C)(C)C)c(O)c(c1)n5nc6ccccc6n5,water,298,-11.11984357,mol/L,658.8910000000001,9.583999999999996,101.88,2.0,8.0
CCC(CC)O[N+]([O-])=O,water,298,-2.4522,mol/L,133.147,1.3833,52.37,0.0,3.0
Oc1cc(Br)cc(C=O)c1,water,298,-3.2502,mol/L,201.019,1.9671999999999998,37.3,1.0,2.0
[H+].[Cl-].CCOC(=O)C1(CCN(C)CC1)c2ccccc2,water,298,-1.6368,mol/L,283.799,-0.670399999999997,29.54,0.0,3.0
CCC(O)(COC(N)=O)c1ccccc1,water,298,-0.9227,mol/L,209.24500000000003,1.3795000000000002,72.55000000000001,2.0,3.0
CC(O)C(O)=O,water,298,1.0454,mol/L,90.07799999999999,-0.5482,57.53,2.0,2.0
C[C@]12CC[C@H]3[C@@H](CCc4cc(O)ccc34)[C@@H]1CC[C@@H]2O,water,298,-4.8789,mol/L,272.388,3.6092000000000026,40.46,2.0,2.0
OC(=O)c1c(Cl)cccc1Cl,water,298,-1.1309,mol/L,191.013,2.691600000000001,37.3,1.0,1.0
OC(=O)c1c(Cl)ccc(Cl)c1Cl,water,298,-1.4666,mol/L,225.458,3.3450000000000006,37.3,1.0,1.0
O=C1CCC(N2C(=O)c3ccccc3C2=O)C(=O)N1,water,298,-2.6758,mol/L,258.23299999999995,0.08779999999999993,83.55000000000001,1.0,4.0
S=C1N=CNc2nc[nH]c12,water,298,-0.3468,mol/L,152.182,1.0154899999999998,57.36,2.0,3.0
CNCCCN1c2ccccc2CCc3ccccc13,water,298,-3.6576,mol/L,266.388,3.5328000000000026,15.27,1.0,2.0
CN(C)CCC=C1c2ccccc2CCc3ccccc13,water,298,-4.4559,mol/L,277.411,4.168600000000003,3.24,0.0,1.0
CO[C@H]1[C@@H](C[C@@H]2CN3CCc4c([nH]c5cc(OC)ccc45)[C@H]3C[C@@H]2[C@@H]1C(=O)OC)OC(=O)c6cc(OC)c(OC)c(OC)c6,water,298,-3.9208,mol/L,608.6880000000003,4.171100000000004,117.78000000000002,1.0,10.0
Oc1ccc(Cl)cc1C(=O)Nc2ccc(cc2Cl)[N+]([O-])=O,water,298,-5.3106,mol/L,327.1230000000001,3.8595000000000006,92.47,2.0,4.0
NCCc1c[nH]c2ccc(O)cc12,water,298,-0.945,mol/L,176.21899999999997,1.3747,62.040000000000006,3.0,2.0
OCC(O)C(O)C(O)C(O)CO,water,298,1.1789,mol/L,182.172,-3.5854000000000004,121.38000000000001,6.0,6.0
OC(=O)c1cc(Cl)c(Cl)cc1Cl,water,298,-2.4446,mol/L,225.458,3.3450000000000006,37.3,1.0,1.0
OC(=O)c1ccc(Cl)cc1Cl,water,298,-2.6003,mol/L,191.01299999999998,2.6916,37.3,1.0,1.0
OCC1OC(O)C(O)C(O)C1O,water,298,0.8235,mol/L,180.156,-3.2214000000000005,110.38000000000001,5.0,6.0
CCCCOCCOCCOCc1cc2OCOc2cc1CCC,water,298,-4.3742,mol/L,338.44400000000013,3.7177000000000024,46.150000000000006,0.0,5.0
[nH]1cnc2ccccc12,water,298,-1.7701,mol/L,118.13899999999995,1.5629,28.68,1.0,1.0
BrC1=CNC(=O)NC1=O,water,298,-2.3698,mol/L,190.98399999999998,-0.17430000000000012,65.72,2.0,2.0
CN1[C@@H]2CC(C[C@H]1C3OC23)OC(=O)[C@H](CO)c4ccccc4,water,298,-0.482,mol/L,303.358,0.9180999999999993,62.3,1.0,5.0
CNC[C@H](O)c1ccc(O)c(O)c1.O[C@H]([C@@H](O)C(O)=O)C(O)=O,water,298,0.0,mol/L,333.29300000000006,-1.7719999999999998,187.77999999999997,8.0,8.0
CNC[C@H](O)c1ccc(O)c(O)c1,water,298,-3.0077,mol/L,183.207,0.35060000000000013,72.72,4.0,4.0
CCCC1=CC(=O)NC(=S)N1,water,298,-2.1504,mol/L,170.237,1.38499,48.65,2.0,2.0
COc1ccc(NC(C)=O)cc1,water,298,-1.0404,mol/L,165.192,1.6535999999999997,38.33,1.0,2.0
CN(CCCl)CCCl,water,298,-1.1141,mol/L,156.056,1.3958,3.24,0.0,1.0
CC(=O)O[C@]1(CC[C@H]2[C@@H]3CCC4=CC(=O)CC[C@@H]4[C@H]3CC[C@]12C)C#C,water,298,-4.8041,mol/L,340.4630000000001,4.0633000000000035,43.370000000000005,0.0,3.0
CC(=O)S[C@@H]1CC2=CC(=O)CC[C@]2(C)[C@H]3CC[C@@]4(C)[C@@H](CC[C@@]45CCC(=O)O5)[C@H]13,water,298,-4.2773,mol/L,416.58300000000025,4.852300000000005,60.44,0.0,5.0
S=[P](N1CC1)(N2CC2)N3CC3,water,298,0.0018,mol/L,189.22399999999996,0.15770000000000017,9.03,0.0,1.0
OCC(Br)(CO)[N+]([O-])=O,water,298,0.0969,mol/L,199.988,-0.6611,83.6,2.0,4.0
CO[P](=O)(OC)C(O)C(Cl)(Cl)Cl,water,298,-0.3315,mol/L,257.437,2.1609000000000003,55.760000000000005,1.0,4.0
NC(CS)C(O)=O,water,298,0.3597,mol/L,121.16099999999997,-0.6719000000000002,63.32,3.0,3.0
C[C@]12CC[C@H]3[C@@H](CCc4cc(O)ccc34)[C@@H]1CCC2=O,water,298,-3.9548,mol/L,270.372,3.817400000000003,37.3,1.0,2.0
ClC(Cl)C(c1ccc(Cl)cc1)c2ccccc2Cl,water,298,-6.5052,mol/L,320.04600000000005,5.929000000000003,0.0,0.0,0.0
C[C@]12CC[C@@H](O)C[C@@H]1CC[C@@H]3[C@@H]2CC[C@@]4(C)[C@H]3CCC4=O,water,298,-4.3839,mol/L,290.447,3.959100000000003,37.3,1.0,2.0
C[C@]12CC[C@H]3[C@@H](CC=C4C[C@@H](O)CC[C@]34C)[C@@H]1CCC2=O,water,298,-3.6576,mol/L,288.43100000000004,3.8792000000000026,37.3,1.0,2.0
COc1ccc2n(c(C)c(CC(O)=O)c2c1)C(=O)c3ccc(Cl)cc3,water,298,-5.5817,mol/L,357.793,3.9273200000000026,68.53,1.0,4.0
CN1CCC[C@H]1c2cccnc2,water,298,0.7898,mol/L,162.236,1.8483,16.130000000000003,0.0,2.0
[Na+].Oc1ccccc1C([O-])=O,water,298,-0.1075,mol/L,160.10399999999996,-3.2402999999999986,60.36,1.0,3.0
OCC1OC(CC1O)N2C=C(I)C(=O)NC2=O,water,298,-2.2481,mol/L,354.1,-1.2181,104.54999999999998,3.0,6.0
NC(Nc1ccc(Cl)cc1)=NC(N)=NCCCCCCN=C(N)N=C(N)Nc2ccc(Cl)cc2,water,298,-2.8006,mol/L,505.4580000000002,3.3366,177.57999999999998,6.0,2.0
CN(C)c1ccc(cc1)N=Nc2cccc(C)c2,water,298,-5.7769,mol/L,239.32199999999997,4.476420000000004,27.96,0.0,3.0
CC(C)O[P](F)(=O)OC(C)C,water,298,-1.0777,mol/L,184.147,2.9140000000000015,35.53,0.0,3.0
CC1=CC(=O)NC(=S)N1,water,298,-2.4259,mol/L,142.18300000000002,0.74091,48.65,2.0,2.0
NCCCC(O)=O,water,298,1.1006,mol/L,103.12099999999998,-0.19009999999999977,63.32,2.0,2.0
C[C@@]12[C@H]3CC[C@H](O3)[C@]1(C)C(=O)OC2=O,water,298,-3.8156,mol/L,196.20199999999997,0.6436,52.6,0.0,4.0
COc1ccc2nccc([C@H](O)[C@H]3C[C@@H]4CCN3C[C@@H]4C=C)c2c1,water,298,-3.365,mol/L,324.4240000000001,3.1732000000000014,45.59,1.0,4.0
Nc1ncnc2n(cnc12)C3OC(CO[P](O)(=O)O[P](O)(=O)O[P](O)(O)=O)C(O)C3O,water,298,0.2948,mol/L,507.1820000000001,-1.6290000000000004,279.13,7.0,14.0
CCO[P](=S)(OCC)Oc1ccc2C(=C(Cl)C(=O)Oc2c1)C,water,298,-5.3835,mol/L,362.77100000000013,4.4311200000000035,57.900000000000006,0.0,6.0
OCC(O)CO,water,298,1.0358,mol/L,92.09400000000001,-1.6681000000000001,60.69,3.0,3.0
NC(CC(O)=O)C(O)=O,water,298,-1.395,mol/L,133.10299999999998,-1.127,100.62,3.0,3.0
N[C@@H](CCC(N)=O)C(O)=O,water,298,-0.5488,mol/L,146.14600000000002,-1.3361999999999998,106.41,3.0,3.0
NC(CCC(O)=O)C(O)=O,water,298,-1.2347,mol/L,147.13,-0.7369000000000001,100.62,3.0,3.0
NCCCCC(N)C(O)=O,water,298,0.8351,mol/L,146.19,-0.4726999999999995,89.34,3.0,3.0
N[C@@H](CSSC[C@H](N)C(O)=O)C(O)=O,water,298,-3.102,mol/L,240.306,-0.8083999999999993,126.64000000000001,4.0,6.0
OCC(O)CO[P](O)(O)=O,water,298,0.7643,mol/L,172.07300000000004,-1.5511000000000001,107.22,4.0,4.0
C=CCN=C=S,water,298,-1.6953,mol/L,99.15799999999999,1.2752,12.36,0.0,2.0
CCCCCCCCCCCCCCCCCC(O)=O,water,298,-5.6781,mol/L,284.4839999999999,6.332500000000007,37.3,1.0,1.0
CN(C)N,water,298,1.2211,mol/L,60.099999999999994,-0.5783,29.259999999999998,1.0,2.0
O=C1NC(=O)C(N1)(c2ccccc2)c3ccccc3,water,298,-3.8967,mol/L,252.27300000000002,1.7695999999999998,58.2,2.0,2.0
CCOC(=O)C1(CCN(C)CC1)c2ccccc2,water,298,-1.8861,mol/L,247.338,2.2131,29.54,0.0,3.0
OC[C@@H](O)[C@@H](O)[C@H](O)C(=O)CO,water,298,0.6353,mol/L,180.15599999999998,-3.3771999999999998,118.22000000000001,5.0,6.0
OC[C@H]1O[C@H](O[C@]2(CO)O[C@H](CO)[C@@H](O)[C@@H]2O)[C@H](O)[C@@H](O)[C@@H]1O,water,298,0.7878,mol/L,342.297,-5.395599999999993,189.52999999999997,8.0,11.0
CC(O)CO,water,298,1.1186,mol/L,76.095,-0.6405000000000001,40.46,2.0,2.0
O=C1CCO1,water,298,0.7105,mol/L,72.063,-0.06669999999999998,26.3,0.0,2.0
C[C@]12CC[C@H]3[C@@H](CCc4cc(O)ccc34)[C@@H]1CC[C@@]2(O)C#C,water,298,-4.4192,mol/L,296.41,3.6126000000000023,40.46,2.0,2.0
NC(N)=N[S](=O)(=O)c1ccc(N)cc1,water,298,-1.9885,mol/L,214.25,-0.7690999999999999,124.55999999999999,3.0,3.0
ClC1CC2C(C1Cl)C3(Cl)C(=C(Cl)C2(Cl)C3(Cl)Cl)Cl,water,298,-6.8644,mol/L,409.7819999999999,5.682800000000001,0.0,0.0,0.0
CCC(=O)O[C@H]1CC[C@H]2[C@@H]3CCC4=CC(=O)CC[C@]4(C)[C@H]3CC[C@]12C,water,298,-5.3669,mol/L,344.4950000000001,4.840100000000005,43.370000000000005,0.0,3.0
CC(C)CCC[C@@H](C)[C@H]1CC[C@H]2[C@@H]3CC=C4C[C@@H](O)CC[C@]4(C)[C@H]3CC[C@]12C,water,298,-6.6096,mol/L,386.6640000000002,7.388700000000009,20.23,1.0,1.0
C[C@]12CC[C@H]3[C@@H](CCc4cc(O)ccc34)[C@@H]1CC[C@H]2O,water,298,-4.8441,mol/L,272.388,3.6092000000000026,40.46,2.0,2.0
CN=C1CN(O)C(=C2C=C(Cl)C=CC2=N1)c3ccccc3,water,298,-2.1757,mol/L,299.76099999999997,1.8492,48.19,1.0,3.0
CN1CCN(CCCN2c3ccccc3Sc4ccc(Cl)cc24)CC1,water,298,-4.3979,mol/L,373.95300000000015,4.580200000000004,9.72,0.0,4.0
[H+].[Cl-].Cc1ncc(CO)c(CO)c1O,water,298,0.0293,mol/L,205.641,-2.803279999999999,73.58000000000001,3.0,4.0
OCC1OC(C(O)C1O)n2cnc3C(=O)N=CNc23,water,298,-1.2299,mol/L,268.22900000000004,-2.2688999999999995,133.49,4.0,8.0
OC1COC(O)C(O)C1O,water,298,0.5678,mol/L,150.13,-2.5823000000000005,90.15,4.0,5.0
OCC1OC(O)C(O)C(O)C1O,water,298,0.5788,mol/L,180.156,-3.2214000000000005,110.38000000000001,5.0,6.0
CCN(CC)C(=O)c1cccnc1,water,298,0.749,mol/L,178.235,1.5636,33.2,0.0,2.0
O=C1Nc2ccccc2C=C1,water,298,-2.1394,mol/L,145.16099999999997,1.5281,32.86,1.0,1.0
Nc1ccc(cc1)[S](=O)(=O)Nc2cnc3ccccc3n2,water,298,-4.6026,mol/L,300.343,2.0128,97.97,2.0,5.0
[Cl-].Cc1ncc(C[n+]2csc(CCO)c2C)c(N)n1,water,298,0.2207,mol/L,300.815,-2.388259999999997,75.91,2.0,5.0
Cc1ccccc1OCC(O)CO,water,298,-1.1887,mol/L,182.219,0.7270199999999998,49.69,2.0,3.0
Cc1cc(O)ccc1Cl,water,298,-1.5704,mol/L,142.58499999999998,2.3540200000000002,20.23,1.0,1.0
CSCCC(N)C(O)=O,water,298,-0.6593,mol/L,149.215,0.1513999999999998,63.32,2.0,3.0
OCC(S)CS,water,298,-0.1547,mol/L,124.23,0.20690000000000003,20.23,3.0,3.0
OCC1OC(O[P](O)(O)=O)C(O)C(O)C1O,water,298,0.5848,mol/L,260.13500000000005,-3.1043999999999996,156.91,6.0,7.0
O=NN1CCOCC1,water,298,0.9351,mol/L,116.12,0.0,41.900000000000006,0.0,3.0
NC(Cc1ccc(O)c(O)c1)C(O)=O,water,298,-1.5959,mol/L,197.18999999999997,0.05219999999999991,103.78,4.0,4.0
OC(=O)CN(CCN(CC(O)=O)CC(O)=O)CC(O)=O,water,298,-2.4658,mol/L,292.244,-2.0711999999999957,155.68,4.0,6.0
Nc1ccc(cc1)N=Nc2ccccc2,water,298,-3.7898,mol/L,197.24100000000004,3.6842000000000015,50.739999999999995,1.0,3.0
NC(Cc1ccc(O)cc1)C(O)=O,water,298,-2.5778,mol/L,181.19099999999997,0.3466,83.55000000000001,3.0,3.0
OCCS,water,298,1.1072,mol/L,78.136,-0.09150000000000003,20.23,2.0,2.0
NCCCCCC(O)=O,water,298,0.5854,mol/L,131.17499999999998,0.5901000000000001,63.32,2.0,2.0
CNN,water,298,1.3366,mol/L,46.073,-0.9205000000000001,38.05,2.0,2.0
CC(N)=O,water,298,1.5808,mol/L,59.068,-0.5084000000000002,43.09,1.0,1.0
CN(C)[C@H]1[C@@H]2C[C@H]3C(=C(O)c4c(O)cccc4[C@@]3(C)O)C(=O)[C@]2(O)C(=O)\C(=C(N)/O)C1=O,water,298,-3.284,mol/L,444.4400000000002,-0.37100000000000005,181.62,6.0,10.0
ClC1=C(Cl)C2(Cl)C3C4CC(C5OC45)C3C1(Cl)C2(Cl)Cl,water,298,-6.2908,mol/L,380.913,4.481400000000002,12.53,0.0,1.0
COc1ccc2Sc3ccccc3N(C[C@H](C)CN(C)C)c2c1,water,298,-4.2155,mol/L,328.4810000000001,4.495600000000004,15.71,0.0,4.0
Nc1ncnc2n(cnc12)C3OC(CO[P](O)(O)=O)C(O)C3O,water,298,-1.5406,mol/L,347.224,-1.8630000000000004,186.07,5.0,10.0
Cc1cccc(Nc2ccccc2C(O)=O)c1C,water,298,-4.0815,mol/L,241.29,3.7452400000000017,49.33,2.0,2.0
[Cl-].CN(C)c1ccc2nc3ccc(cc3[s+]c2c1)N(C)C,water,298,-0.8655,mol/L,319.86100000000005,0.8666000000000007,19.370000000000005,0.0,3.0
Nc1[nH]ncn1,water,298,0.5225,mol/L,84.082,-0.6131000000000004,67.59,2.0,3.0
CC(C)CC(N)C(O)=O,water,298,-0.7854,mol/L,131.17499999999998,0.44439999999999996,63.32,2.0,2.0
[Cl-].COC(C[Hg+])CNC(N)=O,water,298,-1.5235,mol/L,367.1980000000001,-3.3611999999999984,64.35,2.0,2.0
CC(C)(N)C(O)=O,water,298,0.2453,mol/L,103.12099999999998,-0.19169999999999998,63.32,2.0,2.0
C/C=C(/C)C(=O)O[C@H]1CC[C@@]2(C)[C@@H]3CC[C@H]4[C@]5(O)C[C@H](O)[C@@]6(O)[C@@H](CN7C[C@@H](C)CC[C@H]7[C@@]6(C)O)[C@]5(O)C[C@]24O[C@]13O,water,298,-3.0163,mol/L,591.7420000000003,0.9912000000000007,160.14999999999998,6.0,10.0
CO[P](=O)(OC)OC=C(Cl)Cl,water,298,-1.4413,mol/L,220.976,2.6804000000000006,44.760000000000005,0.0,4.0
[Na+].[O-]C(=O)CF,water,298,1.0452,mol/L,100.024,-4.290199999999999,40.129999999999995,0.0,2.0
OCC1OC(OC2C(O)C(O)C(O)OC2CO)C(O)C(O)C1O,water,298,-0.2444,mol/L,342.297,-5.397199999999993,189.52999999999997,8.0,11.0
COC(=O)C1=CCCN(C)C1,water,298,0.8091,mol/L,155.197,0.4213,29.54,0.0,3.0
NC(Cc1ccccc1)C(O)=O,water,298,-0.7882,mol/L,165.19199999999995,0.641,63.32,2.0,2.0
CNC(=O)Oc1cccc(c1)C(C)C,water,298,-3.3567,mol/L,193.24599999999998,2.528200000000001,38.33,1.0,2.0
[Na+].[Na+].[Na+].[Na+].[O-]C(=O)CN(CCN(CC([O-])=O)CC([O-])=O)CC([O-])=O,water,298,0.119,mol/L,380.1720000000002,-19.393999999999984,167.0,0.0,10.0
CCO,water,298,1.3366,mol/L,46.069,-0.0014000000000000123,20.23,1.0,1.0
OC=O,water,298,1.337,mol/L,46.025,-0.29919999999999997,37.3,1.0,1.0
CC(O)=O,water,298,1.2215,mol/L,60.05200000000001,0.09089999999999993,37.3,1.0,1.0
C[NH+]1CC[C@@]23C4Oc5c(O)ccc(C[C@H]1[C@H]2C=C[C@H]4O)c35.C[NH+]6CC[C@@]78C9Oc%10c(O)ccc(C[C@H]6[C@H]7C=C[C@H]9O)c8%10.[O-][S]([O-])(=O)=O,water,298,-1.0157,mol/L,668.7650000000004,-1.7759999999999931,188.52,6.0,10.0
CCC(C)C(C)(COC(N)=O)COC(N)=O,water,298,-2.366,mol/L,232.27999999999994,1.2294000000000005,104.63999999999999,2.0,4.0
COC1=CC=C2C(=CC1=O)[C@H](CCc3cc(OC)c(OC)c(OC)c23)NC(C)=O,water,298,-0.9482,mol/L,399.44300000000015,2.871600000000001,83.09,1.0,6.0
[H+].[Cl-].Cc1ncc(CO)c(C=O)c1O,water,298,0.3901,mol/L,203.625,-2.4830799999999997,70.42,2.0,4.0
CSCCC(NC(C)=O)C(O)=O,water,298,0.2055,mol/L,191.25199999999998,0.3288,66.4,2.0,3.0