Solute,Solvent,Temperature_K,Solubility,Units,MW,LogP,TPSA,HBD,HBA
[Fe++].[O-]C(=O)\C=C/C([O-])=O,water,298,-2.084067899,mol/L,169.90099999999995,-2.9600999999999997,80.25999999999999,0.0,4.0
C/C=C/C(=O)C1C(=CCCC1(C)C)C,water,298,-3.137855765,mol/L,192.30199999999996,3.5141000000000027,17.07,0.0,1.0
Cc1cc(ccc1N)[N+]([O-])=O,water,298,-3.036152484,mol/L,152.153,1.48542,69.16,1.0,3.0
CCCCCCCCCO,water,298,-3.013011871,mol/L,144.258,2.7293000000000016,20.23,1.0,1.0
CCCOC(=O)C1CCCCC1C(=O)OCCC,water,298,-3.262691733,mol/L,256.34199999999987,2.699200000000001,52.60000000000001,0.0,4.0
Cc1ccc2nc(sc2c1[S](O)(=O)=O)c3ccc(N)cc3,water,298,-4.332499462,mol/L,320.39500000000004,3.10062,93.28,2.0,5.0
O=C1CCCCCCCCCCCC(=O)OCCO1,water,298,-4.261695179,mol/L,270.3689999999999,3.377500000000002,52.60000000000001,0.0,4.0
Oc1ccc(cc1)C2CCCCC2,water,298,-4.075889586,mol/L,176.25899999999993,3.4399000000000015,20.23,1.0,1.0
Oc1cc(Cl)ccc1Oc2ccc(Cl)cc2,water,298,-4.239393124,mol/L,255.1,4.491300000000002,29.46,1.0,2.0
CC(C)=CC\C=C(/C)C=C,water,298,-3.972930257,mol/L,136.23799999999997,3.4750000000000023,0.0,0.0,0.0
[CaH2].O=[Zr],water,298,-4.012741254,mol/L,149.317,-1.0375,17.07,0.0,1.0
CC(CC(=O)OOC(C)(C)C)CC(C)(C)C,water,298,-4.210096102,mol/L,230.34799999999993,3.722100000000003,35.53,0.0,3.0
CC(C)=CCC\C(C)=C\CCC(C)(O)C=C,water,298,-4.197860989,mol/L,222.37199999999996,4.3963000000000045,20.23,1.0,1.0
Nc1nc(N)nc(Nc2nc(N)nc(N)n2)n1,water,298,-4.225336978,mol/L,235.215,-1.8710000000000013,193.45,5.0,11.0
CCCCOC(=O)CSCSCC(=O)OCCCC,water,298,-4.343077858,mol/L,308.4650000000001,3.0969000000000015,52.60000000000001,0.0,6.0
COC(=O)C1CC2(CCC1(C)C=C2)C(C)C,water,298,-4.200866126,mol/L,222.328,3.1780000000000017,26.3,0.0,2.0
CC1CCCCC1,water,298,-3.845934801,mol/L,98.18900000000001,2.5866000000000007,0.0,0.0,0.0
CC(C)(OO)c1ccccc1,water,298,-1.039379878,mol/L,152.19299999999998,2.4113000000000007,29.46,1.0,2.0
CI,water,298,-1.009086941,mol/L,141.939,1.0512000000000001,0.0,0.0,0.0
O=C(OCC1CCC2OC2C1)C3CCC4OC4C3,water,298,-1.26048469,mol/L,252.30999999999995,1.6645999999999999,51.36,0.0,4.0
[O--].[O--].[Mg++].[Ca++],water,298,-1.842478945,mol/L,96.381,-0.9992000000000001,57.0,0.0,0.0
COC(=O)OC,water,298,0.185260351,mol/L,90.078,0.3992,35.53,0.0,3.0
[O-][N+](=O)OCC(CO[N+]([O-])=O)O[N+]([O-])=O,water,298,-2.216309362,mol/L,227.08499999999998,-1.0200999999999996,157.11,0.0,9.0
[Na+].CC\1=Nc2ccccc2C1=N/Nc3cc(Cl)c(cc3Cl)[S](=O)(=O)NCC[S]([O-])(=O)=O,water,298,-3.57054294,mol/L,513.3600000000002,-0.2568999999999997,140.12,2.0,8.0
CC(=C)C(=O)OC1CCCCC1,water,298,-3.088564823,mol/L,168.23599999999996,2.4384000000000006,26.3,0.0,2.0
[K].CCCCCCCCCCCCCCCCCC.O[P](O)(O)=O,water,298,-3.45557689,mol/L,391.594,5.958400000000009,77.75999999999999,3.0,1.0
CCCCCCCCN1CCCC1=O,water,298,-2.1616366,mol/L,197.32199999999997,2.9693000000000014,20.310000000000002,0.0,1.0
CCC(=O)OCCc1ccccc1,water,298,-3.117444335,mol/L,178.23100000000002,2.1822999999999997,26.3,0.0,2.0
CCCC(=O)OCc1ccccc1,water,298,-3.117444335,mol/L,178.231,2.5299000000000005,26.3,0.0,2.0
CC(=O)Nc1ccc(N)c(c1)[S](O)(=O)=O,water,298,-1.231856439,mol/L,230.245,0.47390000000000004,109.49000000000001,3.0,4.0
NO[S](O)(=O)=O,water,298,0.07528272,mol/L,113.09399999999998,-1.3204999999999996,89.62,2.0,4.0
CC/C=C/CCOC(=O)OC,water,298,-3.069830648,mol/L,158.197,2.1257,35.53,0.0,3.0
O=[Ca],water,298,-1.622458512,mol/L,56.077000000000005,-0.49960000000000004,17.07,0.0,1.0
CCN(CC)CC,water,298,0.11870117,mol/L,101.193,1.3481,3.24,0.0,1.0
CCCCCC(=O)OC,water,298,-1.990715978,mol/L,130.18699999999998,1.7397,26.3,0.0,2.0
C1CC2CC1C=C2,water,298,-2.847721205,mol/L,94.15699999999998,1.9725,0.0,0.0,0.0
Cc1ccc(c(C)c1)[N+]([O-])=O,water,298,-3.055599607,mol/L,151.165,2.21164,43.14,0.0,2.0
OC(=O)CSc1sc2ccccc2n1,water,298,-3.228897985,mol/L,225.294,2.4730000000000008,50.19,1.0,4.0
CC(C)(C)c1ccc(C=O)cc1,water,298,-3.086284881,mol/L,162.23199999999997,2.7966000000000015,17.07,0.0,1.0
CC(=C)C(=O)OC1CCCCC1,water,298,-3.102067293,mol/L,168.23599999999996,2.4384000000000006,26.3,0.0,2.0
ClCCl,water,298,-0.808502533,mol/L,84.93299999999999,1.4215,0.0,0.0,0.0
CC(C)(C)c1ccc(CCC=O)cc1,water,298,-3.158832906,mol/L,190.28599999999997,3.1156000000000024,17.07,0.0,1.0
OC(=O)c1cc(cc(c1)[N+]([O-])=O)[N+]([O-])=O,water,298,-2.207649723,mol/L,212.11699999999996,1.2011999999999998,123.58000000000001,1.0,5.0
C=C,water,298,-2.330723497,mol/L,28.053999999999995,0.8022,0.0,0.0,0.0
CC1(C)CC(CC(C)(C)N1)N(CCCCCCN(C=O)C2CC(C)(C)NC(C)(C)C2)C=O,water,298,-1.539955769,mol/L,450.7120000000002,4.0820000000000025,64.68,2.0,4.0
NNC(N)=S,water,298,-0.845760907,mol/L,91.139,-1.3067000000000002,64.07,3.0,2.0
CCCCCCO,water,298,-1.895409795,mol/L,102.17699999999999,1.559,20.23,1.0,1.0
CCCCC(CC)C1OCCO1,water,298,-3.119596868,mol/L,172.26799999999994,2.5757000000000003,18.46,0.0,2.0
CCC(C)(C)OOC(C)(C)CC,water,298,-4.100435339,mol/L,174.28399999999993,3.3118000000000016,18.46,0.0,2.0
CCC(=O)/C=C/C1=C(C)CCCC1(C)C,water,298,-4.187455475,mol/L,206.32899999999992,4.048300000000003,17.07,0.0,1.0
CC(C)C(OC(=O)C(C)C)C(C)(C)COC(=O)C(C)C,water,298,-4.333139569,mol/L,286.412,3.4356000000000027,52.6,0.0,4.0
CCC(=O)OC1CCC(CC1)C(C)C,water,298,-4.173484214,mol/L,198.30599999999995,3.1544000000000016,26.3,0.0,2.0
CCCCCCCC[Si](OC)(OC)OC,water,298,-4.246128199,mol/L,234.41199999999998,3.2250000000000014,27.69,0.0,3.0
CC(C)C(OC(=O)C(C)C)C(C)(C)COC(=O)C(C)C,water,298,-4.336417279,mol/L,286.412,3.4356000000000027,52.6,0.0,4.0
CCC1(C)OOC(C)(CC)OOC(C)(CC)OO1,water,298,-4.304855444,mol/L,264.3179999999999,3.223200000000002,55.38000000000001,0.0,6.0
CCCCOC(=O)c1ccccc1C(=O)OCCCC,water,298,-4.330644753,mol/L,278.348,3.600400000000003,52.60000000000001,0.0,4.0
CN(C)Cc1cc(c(O)c(c1)C(C)(C)C)C(C)(C)C,water,298,-4.306713636,mol/L,263.42499999999995,4.0488000000000035,23.47,1.0,2.0
O[C@]12COC(O[C@@H]1[C@H]3OC(OC[C@H]3O2)c4ccccc4)c5ccccc5,water,298,-4.437962659,mol/L,356.374,2.3022,66.38000000000001,1.0,6.0
[CaH2].O=[Zr],water,298,-4.060165903,mol/L,149.317,-1.0375,17.07,0.0,1.0
FC=C,water,298,-0.552583335,mol/L,46.044000000000004,1.0994000000000002,0.0,0.0,0.0
CCOC(=O)C1=NN(C(=O)C1)c2ccccc2,water,298,-3.255345443,mol/L,232.239,1.3424,58.97,0.0,4.0
CC(C)CCCCCCO,water,298,-3.051929937,mol/L,144.258,2.5852000000000017,20.23,1.0,1.0
CCCCCCCCCO,water,298,-3.051929937,mol/L,144.258,2.7293000000000016,20.23,1.0,1.0
C=CCCCCCC=O,water,298,-1.997252193,mol/L,126.19899999999998,2.3218000000000005,17.07,0.0,1.0
Cc1c(cc(cc1[N+]([O-])=O)[N+]([O-])=O)[N+]([O-])=O,water,298,-3.252474604,mol/L,227.13199999999998,1.7196200000000006,129.42000000000002,0.0,6.0
OC(=O)C(c1ccccc1)c2ccccc2,water,298,-3.223039886,mol/L,212.24800000000002,2.903100000000001,37.3,1.0,1.0
[K+].[I-],water,298,0.880257225,mol/L,166.002,-5.992,0.0,0.0,0.0
CC(C)(C)c1ccc(cc1)C(O)=O,water,298,-1.150612699,mol/L,178.23099999999997,2.6823000000000006,37.3,1.0,1.0
CCCCCCCC/C=C/CCCCCCCC(=O)NCCCN(C)C,water,298,-2.463862192,mol/L,366.63400000000007,6.091800000000006,32.34,1.0,2.0
CCCCCCC(=O)OCC,water,298,-3.098948474,mol/L,158.24099999999999,2.5199000000000007,26.3,0.0,2.0
CC(C)OC(Cl)=O,water,298,-0.988291129,mol/L,122.551,1.7702,26.3,0.0,2.0
[Na+].Oc1ccccc1C([O-])=O,water,298,-0.107492169,mol/L,160.10399999999996,-3.2402999999999986,60.36,1.0,3.0
CC(Cl)(Cl)Cl,water,298,-2.028262094,mol/L,133.405,2.376500000000001,0.0,0.0,0.0
CC(=O)OC(=C)c1ccccc1,water,298,-2.113595388,mol/L,162.18800000000002,2.2203999999999997,26.3,0.0,2.0
CCOC(=O)CC1(C)OCC(C)O1,water,298,-2.179887223,mol/L,188.22299999999998,1.0911,44.760000000000005,0.0,4.0
[S--].[Co++],water,298,-1.865514649,mol/L,91.0,-0.0049,0.0,0.0,0.0
Clc1cccc(Cl)c1,water,298,-3.072159801,mol/L,147.004,2.993400000000001,0.0,0.0,0.0
Cc1ccccc1CCO,water,298,-1.042878011,mol/L,136.19400000000002,1.52982,20.23,1.0,1.0
Cc1ccc(Cl)cc1,water,298,-3.012480565,mol/L,126.586,2.6484200000000007,0.0,0.0,0.0
Cc1ccn2nc(nc2n1)[S](=O)(=O)Nc3c(F)cccc3F,water,298,-3.422378952,mol/L,325.3,1.51172,89.25,1.0,6.0
Oc1ccc(Cl)c(O)c1,water,298,-1.070567643,mol/L,144.55700000000002,1.7511999999999999,40.46,2.0,2.0
CC1(C)C2CC(O)C(=C)C1C2,water,298,-2.09612479,mol/L,152.237,1.9695,20.23,1.0,1.0
CC(C)C1CCC(O)CC1,water,298,-2.068094275,mol/L,142.24199999999996,2.1935000000000002,20.23,1.0,1.0
[O-][N+](=O)c1ccc(Cl)c(Cl)c1,water,298,-3.20051812,mol/L,192.00099999999998,2.901600000000001,43.14,0.0,2.0
[Na+].[Na+].CC1=NN(C(=O)C1N=Nc2ccc(cc2)[S]([O-])(=O)=O)c3cc(Cl)c(cc3Cl)[S]([O-])(=O)=O,water,298,-0.66054277,mol/L,551.2970000000003,-3.315399999999995,171.79,0.0,10.0
N.[Fe+3].OC(CC([O-])=O)(CC([O-])=O)C([O-])=O,water,298,0.660921397,mol/L,261.97499999999997,-5.093099999999998,175.62,2.0,8.0
[Na+].[Na+].Nc1ccc(cc1[S]([O-])(=O)=O)N=Nc2ccc(cc2)[S]([O-])(=O)=O,water,298,-0.524323625,mol/L,401.3330000000001,-4.499599999999996,165.14,1.0,9.0
CCCCCCN,water,298,-0.925969225,mol/L,101.19300000000001,1.5253999999999999,26.02,1.0,1.0
C=CC(=O)OCCCOCC(COCCCOC(=O)C=C)OCCCOC(=O)C=C,water,298,-2.552747282,mol/L,428.4780000000003,1.7627,106.59,0.0,9.0
CN(C)c1ccccc1,water,298,-2.004260454,mol/L,121.18299999999995,1.7526,3.24,0.0,1.0
CC(=O)Nc1ccc(cc1)[S](=O)(=O)CCO,water,298,-2.306932302,mol/L,243.28399999999996,0.41099999999999987,83.47,2.0,4.0
C#C,water,298,-1.336426377,mol/L,26.037999999999997,0.24939999999999998,0.0,0.0,0.0
CCC(=O)c1ccccc1,water,298,-2.048500068,mol/L,134.17799999999997,2.2793,17.07,0.0,1.0
CC(C)(C)c1ccc(C=O)cc1,water,298,-3.130955276,mol/L,162.23199999999997,2.7966000000000015,17.07,0.0,1.0
Nc1ccc2cc(ccc2c1)[S](O)(=O)=O,water,298,-3.269616058,mol/L,223.253,1.6687,80.39,2.0,3.0
CCC(=O)CCC1C(=CCCC1(C)C)C.OCC#C,water,298,-4.321905689,mol/L,264.40899999999993,3.7401000000000026,37.3,1.0,2.0
CCCCC(CC)CO[N+]([O-])=O,water,298,-4.146693491,mol/L,175.22799999999998,2.4111000000000002,52.37,0.0,3.0
CCOC1CC(C)CC(C)(C)C1,water,298,-4.134294434,mol/L,170.296,3.237700000000002,9.23,0.0,1.0
CC(C)CCCCCOC(=O)C=C,water,298,-4.170655467,mol/L,184.279,2.9320000000000013,26.3,0.0,2.0
O=C1N(SC2CCCCC2)C(=O)c3ccccc13,water,298,-4.323794172,mol/L,261.346,3.2635000000000023,37.38,0.0,3.0
Cc1cc(C)c(c(C)c1Nc2ccc(Nc3c(C)cc(C)c(c3C)[S](=O)(=O)NC4CCCCC4)c5C(=O)c6ccccc6C(=O)c25)[S](=O)(=O)NC7CCCCC7,water,298,-4.818703465,mol/L,797.056,9.021720000000002,150.53999999999996,4.0,8.0
Cc1cc(c(O)c(C)c1CC#N)C(C)(C)C,water,298,-4.257902463,mol/L,217.31199999999995,3.372620000000002,44.019999999999996,1.0,2.0
S=[Cd],water,298,-4.080623481,mol/L,144.479,0.6457,0.0,0.0,1.0
CCO[P](=O)(Cc1cc(c(O)c(c1)C(C)(C)C)C(C)(C)C)OCC,water,298,-4.472808844,mol/L,356.44300000000015,5.753300000000006,55.760000000000005,1.0,4.0
[O--].[O--].[O--].[O--].[O--].[O--].[O--].[O--].[O--].[Fe+3].[Fe+3].[Mo].[Mo],water,298,-4.57167099,mol/L,447.561,-1.0791999999999997,256.5,0.0,0.0
[Na+].Oc1ccccc1C([O-])=O,water,298,-0.128855221,mol/L,160.10399999999996,-3.2402999999999986,60.36,1.0,3.0
[Zn++].CC(C)(C)CC(C)(C)CC([O-])=O.CC(C)(C)CC(C)(C)CC([O-])=O,water,298,-3.534288097,mol/L,407.91000000000025,3.1751000000000023,80.25999999999999,0.0,4.0
CC(CCC=C(C)C)CC#N,water,298,-3.104157036,mol/L,151.253,3.282580000000002,23.79,0.0,1.0
CC(=O)Oc1ccccc1[N+]([O-])=O,water,298,-2.185523911,mol/L,181.14699999999996,1.5200999999999998,69.44,0.0,4.0
CCOc1cc(NC(=O)c2ccccc2)c(OCC)cc1N,water,298,-2.405757197,mol/L,300.35800000000006,3.318500000000001,73.58,2.0,4.0
S=C1Nc2ccccc2S1,water,298,-3.151504892,mol/L,167.25799999999998,2.9588900000000002,15.79,1.0,2.0
CCOc1nc(NC)nc(NC(=O)N[S](=O)(=O)c2ccccc2C(=O)OC)n1,water,298,-3.541338043,mol/L,410.4120000000002,0.6089999999999994,161.5,3.0,10.0
COC(=O)c1ccccc1C(=O)c2ccccc2,water,298,-3.309901395,mol/L,240.25799999999998,2.704200000000001,43.370000000000005,0.0,3.0
Cc1cccc(c1C)[N+]([O-])=O,water,298,-3.111265387,mol/L,151.165,2.21164,43.14,0.0,2.0
S=C1Nc2ccccc2S1,water,298,-3.155201038,mol/L,167.25799999999998,2.9588900000000002,15.79,1.0,2.0
O=C1CCN(N1)c2ccccc2,water,298,-1.144823301,mol/L,162.192,0.9279,32.34,1.0,2.0
Cc1ccccc1CCl,water,298,-3.081326924,mol/L,140.613,2.7338200000000006,0.0,0.0,0.0
CC(=C)c1ccccc1,water,298,-3.008082322,mol/L,118.17899999999996,2.7197000000000005,0.0,0.0,0.0
COc1cc(CC=C)ccc1O,water,298,-2.153177924,mol/L,164.204,2.1293,29.46,1.0,2.0
O=C1NSc2ccccc12,water,298,-2.11769376,mol/L,151.18999999999997,1.5896,32.86,1.0,2.0
[K].CCCCCCCCCCCCCCCCCC.O[P](O)(O)=O,water,298,-3.529803064,mol/L,391.594,5.958400000000009,77.75999999999999,3.0,1.0
COc1ccc(cc1N)[N+]([O-])=O,water,298,-3.165004197,mol/L,168.152,1.1856,78.38999999999999,1.0,4.0
[K+].O[Si]([O-])=O,water,298,-3.004467174,mol/L,116.189,-5.2416,60.36,1.0,2.0
O.O.O.O.O.[Na+].[Na+].[O-][Si]([O-])=O,water,298,-3.26592063,mol/L,212.13799999999998,-12.993099999999997,220.69,0.0,3.0
Fc1cccc(F)c1,water,298,-2.000357955,mol/L,114.094,1.9648,0.0,0.0,0.0
CCCCCCCCN1CCCC1=O,water,298,-2.238270657,mol/L,197.32199999999997,2.9693000000000014,20.310000000000002,0.0,1.0
[Cd++].[O-]C([O-])=O,water,298,-2.179682789,mol/L,172.42,-2.4495000000000005,63.19,0.0,3.0
CC\C=C/CCOC(=O)C(C)C,water,298,-3.174187371,mol/L,170.252,2.541900000000001,26.3,0.0,2.0
Cc1cc(C)c(c(C)c1Nc2ccc(Nc3c(C)cc(C)c(c3C)[S](O)(=O)=O)c4C(=O)c5ccccc5C(=O)c24)[S](O)(=O)=O.NCCCCCCN,water,298,-2.820609377,mol/L,750.9399999999997,6.757320000000006,218.98,6.0,10.0
CCN(CC)CC,water,298,0.04561584,mol/L,101.193,1.3481,3.24,0.0,1.0
CC1C(C)(C)C2=C(C(=O)CCC2)C1(C)C,water,298,-3.265342251,mol/L,206.32899999999992,3.738100000000003,17.07,0.0,1.0
O=C1NSc2ccccc12,water,298,-2.133027903,mol/L,151.18999999999997,1.5896,32.86,1.0,2.0
[Na+].CCCCCCCCCCCC(=O)N[C@@H](CCC(O)=O)C([O-])=O,water,298,-2.500424016,mol/L,351.4190000000001,-0.9891999999999961,106.53,2.0,4.0
CC(C)(c1ccc(OCCO)cc1)c2ccc(OCCO)cc2,water,298,-3.451790553,mol/L,316.39700000000005,2.7547000000000015,58.92,2.0,4.0
CC(C)NC(C)C,water,298,0.036242214,mol/L,101.19299999999998,1.3927999999999998,12.03,1.0,1.0
CCCCCCN,water,298,-1.963453886,mol/L,101.19300000000001,1.5253999999999999,26.02,1.0,1.0
C[C@@H]1O[C@@H](O[C@@H]2[C@@H](O)[C@H](O)[C@@H](CO)O[C@H]2Oc3cc(O)c4C(=O)C[C@H](Oc4c3)c5ccc(O)cc5)[C@H](O)[C@H](O)[C@H]1O,water,298,-2.722438715,mol/L,580.5390000000004,-1.1652000000000018,225.05999999999997,8.0,14.0
[Sn++].[O-]C(=O)C([O-])=O,water,298,-2.274008719,mol/L,206.72899999999998,-3.8946000000000005,80.25999999999999,0.0,4.0
[Mg++].[O-]C([O-])=O,water,298,-2.884501857,mol/L,84.31299999999999,-2.8278000000000003,63.19,0.0,3.0
CCC(C)c1ccccc1,water,298,-4.055941699,mol/L,134.22199999999998,3.2001000000000017,0.0,0.0,0.0
CC(C)COC(=O)c1ccccc1C(=O)OCC(C)C,water,298,-4.383890265,mol/L,278.348,3.3122000000000025,52.60000000000001,0.0,4.0
CC(CCNC(=O)OCCOC(=O)C(C)=C)CC(C)(C)CNC(=O)OCCOC(=O)C(C)=C,water,298,-4.619923834,mol/L,470.5630000000003,3.119900000000002,129.26,2.0,8.0
ClC(Cl)c1ccccc1,water,298,-4.157691467,mol/L,161.031,3.1628000000000016,0.0,0.0,0.0
CCCCOC(=O)c1ccccc1C(=O)OCCCC,water,298,-4.395370083,mol/L,278.348,3.600400000000003,52.60000000000001,0.0,4.0
CCC(CC)CC1(CCCCC1)C(O)=O,water,298,-4.281694517,mol/L,212.33299999999997,3.847800000000002,37.3,1.0,1.0
CCCCOC(=O)\C=C\C(=O)OCCCC,water,298,-4.313551537,mol/L,228.28799999999993,2.2291999999999996,52.60000000000001,0.0,4.0
CC1(C)C2CCC(=C)C1C2,water,298,-4.091722747,mol/L,136.238,2.9987000000000013,0.0,0.0,0.0
Cc1cc(C)c(c(C)c1)C(=O)[P](=O)(c2ccccc2)c3ccccc3,water,298,-4.500663023,mol/L,348.382,4.766160000000004,34.14,0.0,2.0
CCCCCCCCCCCCCCCCN(C)C,water,298,-4.389193479,mol/L,269.51699999999994,6.029300000000006,3.24,0.0,1.0
[Ca++].[O-][Si]([O-])=O,water,298,-4.023667657,mol/L,116.161,-3.2584,63.19,0.0,3.0
O[S](=O)(=O)c1ccc2nc([nH]c2c1)c3ccccc3,water,298,-3.400800893,mol/L,274.301,2.4766000000000004,83.04999999999998,2.0,3.0
CC(=C)C(=O)OCCOC(=O)C(C)=C,water,298,-2.261313265,mol/L,198.21799999999996,1.2249999999999999,52.6,0.0,4.0
O=C1NSc2ccccc12,water,298,-2.144093329,mol/L,151.18999999999997,1.5896,32.86,1.0,2.0
O=C/C=C/c1ccccc1,water,298,-2.08607732,mol/L,132.16199999999998,1.8987,17.07,0.0,1.0
[Cl-].C[NH3+],water,298,-1.796002246,mol/L,67.519,-4.137899999999999,27.64,1.0,0.0
CC(CCl)O[P](=O)(OC(C)CCl)OC(C)CCl,water,298,-2.481883017,mol/L,327.572,4.026200000000004,44.760000000000005,0.0,4.0
Cc1cccc(C)c1C.C2Cc3ccccc3C2.C4C=Cc5ccccc45,water,298,-3.51623781,mol/L,354.53700000000003,7.043060000000007,0.0,0.0,0.0
CC/C=C/CC/C=C/C=C,water,298,-3.100874504,mol/L,136.23799999999997,3.4750000000000023,0.0,0.0,0.0
Oc1ccc(cc1)C(=O)OCc2ccccc2,water,298,-3.324981323,mol/L,228.24699999999999,2.749200000000001,46.53,1.0,3.0
CCCCCCCCO,water,298,-3.085330598,mol/L,130.23100000000002,2.3392000000000013,20.23,1.0,1.0
N#C/C=C/c1ccccc1,water,298,-2.082970342,mol/L,129.16199999999998,2.2233799999999997,23.79,0.0,1.0
Nc1cccc(c1)[S](=O)(=O)CCO[S](O)(=O)=O,water,298,-1.423880849,mol/L,281.311,-0.13809999999999972,123.75999999999999,2.0,6.0
CC(=O)/C=C/C1C(=CCCC1(C)C)C,water,298,-3.258677936,mol/L,192.30199999999996,3.5141000000000027,17.07,0.0,1.0
CCCCCCCCCCO,water,298,-3.174133895,mol/L,158.285,3.119400000000002,20.23,1.0,1.0
CCOC=O,water,298,0.151494188,mol/L,74.07900000000001,0.17930000000000001,26.3,0.0,2.0
Nc1cc(ccc1C(O)=O)[S](O)(=O)=O,water,298,-1.315674521,mol/L,217.20199999999997,0.2136999999999999,117.69,3.0,4.0
NCCc1ccc(O)cc1,water,298,-1.116107831,mol/L,137.18199999999996,0.8934,46.25,2.0,2.0
[Na+].CN(C1CCCCC1)[S](=O)(=O)c2ccccc2NNC3=C4C(=O)C=C(C=C4C=CC3=N)[S]([O-])(=O)=O,water,298,-2.711685939,mol/L,540.5990000000002,-0.6578299999999975,159.56,3.0,9.0
CCCCOCCOC(=O)c1ccccc1,water,298,-3.322422536,mol/L,222.28400000000002,2.660100000000001,35.53,0.0,3.0
COc1cc(ccc1N)[N+]([O-])=O,water,298,-3.204512738,mol/L,168.152,1.1856,78.38999999999999,1.0,4.0
S=[Zn],water,298,-2.967623739,mol/L,97.457,0.6457,0.0,0.0,1.0
OC(=O)CN(CCCN(CC(O)=O)CC(O)=O)CC(O)=O,water,298,-1.469072537,mol/L,306.2710000000001,-1.6810999999999965,155.68,4.0,6.0
Oc1cc(F)c(F)c(F)c1,water,298,-0.153609692,mol/L,148.083,1.8094999999999997,20.23,1.0,1.0
CCCCCC(O)=O,water,298,-1.052219379,mol/L,116.15999999999998,1.6513,37.3,1.0,1.0
CCCCOC(=O)CC(O)(CC(=O)OCCCC)C(=O)OCCCC,water,298,-3.545270972,mol/L,360.4470000000002,2.5276000000000005,99.13000000000001,1.0,7.0
CC1C=C(C)CCC1COC(C)=O,water,298,-3.250398558,mol/L,182.26299999999998,2.541900000000001,26.3,0.0,2.0
CCCCC(CC)COC(=O)CC#N,water,298,-3.286478485,mol/L,197.27799999999996,2.6596800000000007,50.09,0.0,3.0
[Pb++].[O-][S]([O-])(=O)=O.O=[Pb].O=[Pb].O=[Pb],water,298,-3.979450176,mol/L,972.8600000000001,-3.2176,131.46999999999997,0.0,7.0
CC1(C)S[C@@H]2[C@H](NC(=O)[C@H](N)c3ccccc3)C(=O)N2[C@H]1C(O)=O,water,298,-1.539016442,mol/L,349.4120000000001,0.3181000000000002,112.72999999999999,3.0,5.0
Nc1ccc(Cc2ccc(N)cc2)cc1,water,298,-2.292933442,mol/L,198.269,2.4418000000000006,52.04,2.0,2.0
CCOc1ccc2NC(C)(C)C=C(C)c2c1,water,298,-3.332762335,mol/L,217.31199999999998,3.692700000000002,21.259999999999998,1.0,2.0
CCCCOCCOC(=O)CCCCC(=O)OCCOCCCC,water,298,-3.535336741,mol/L,346.46400000000017,3.2666000000000013,71.06,0.0,6.0
CCCCCCCCC=O,water,298,-3.148706476,mol/L,142.242,2.935900000000001,17.07,0.0,1.0
Cc1cccc(C)c1OCC(O)=O,water,298,-1.253311704,mol/L,180.20299999999997,1.76684,46.53,1.0,2.0
Cc1cccc(C)c1OCC(O)=O,water,298,-1.253727344,mol/L,180.20299999999997,1.76684,46.53,1.0,2.0
NCc1occc1,water,298,1.012704742,mol/L,97.11699999999998,0.7383000000000001,39.16,1.0,2.0
OCC(F)(F)F,water,298,0.999830658,mol/L,100.03900000000002,0.5410000000000001,20.23,1.0,1.0
C[Si]1O[Si](C)O[Si](C)O[Si](C)O[Si](C)O1,water,298,0.52929557,mol/L,295.6,0.6729999999999998,46.150000000000006,0.0,5.0
CCOCCOCCOC(C)=O,water,298,0.75396452,mol/L,176.212,0.6025999999999998,44.760000000000005,0.0,4.0
CO[Si](CCCOC(=O)C(C)=C)(OC)OC,water,298,0.604934087,mol/L,248.35099999999997,1.3739,53.99000000000001,0.0,5.0
Oc1ccc(Cl)c(O)c1,water,298,0.839960873,mol/L,144.55700000000002,1.7511999999999999,40.46,2.0,2.0
CC(=C)O[Si](OC(C)=C)(OC(C)=C)C=C,water,298,0.645223339,mol/L,226.34799999999993,3.3011000000000017,27.69,0.0,3.0
CC#N,water,298,1.386655101,mol/L,41.053,0.52988,23.79,0.0,1.0
OCCCCO,water,298,1.045169179,mol/L,90.122,-0.24880000000000008,40.46,2.0,2.0