Solute,Solvent,Temperature_K,Solubility,Units,MW,LogP,TPSA,HBD,HBA
CC(=O)Oc1ccccc1C(=O)Oc2ccccc2,water,298,-4.1077,mol/L,256.25699999999995,2.831100000000001,52.60000000000001,0.0,4.0
N[S](=O)(=O)c1cc2c(NCN[S]2(=O)=O)cc1C(F)(F)F,water,298,-3.0431,mol/L,331.297,0.014100000000000501,118.35999999999999,3.0,5.0
Nc1ccc(cc1)c2ccc(Cl)cc2,water,298,-4.6383,mol/L,203.672,3.5892000000000017,26.02,1.0,1.0
N(N=Nc1ccccc1)c2ccccc2,water,298,-2.596,mol/L,197.24099999999999,3.7974000000000023,36.75,1.0,2.0
CCOc1ccc(cc1N)[N+]([O-])=O,water,298,-3.2113,mol/L,182.17899999999995,1.5756999999999999,78.38999999999999,1.0,4.0
Cc1cc(C)c(N)cc1C,water,298,-1.9549,mol/L,135.21,2.1940600000000003,26.02,1.0,1.0
[Na+].CCC([O-])=O,water,298,0.7164,mol/L,96.06099999999999,-3.8496999999999995,40.129999999999995,0.0,2.0
[Na+].CNC([S-])=S,water,298,0.7473,mol/L,129.185,-2.9583999999999993,12.03,1.0,2.0
[H+].[Cl-].NC(CCC(O)=O)C(O)=O,water,298,0.3159,mol/L,183.59099999999998,-3.6203999999999974,100.62,3.0,3.0
CCCCOC(=O)C(C)O,water,298,-0.5629,mol/L,146.18599999999998,0.7104999999999999,46.53,1.0,3.0
NNc1cccc(c1)[S](O)(=O)=O,water,298,-0.8275,mol/L,188.20799999999997,0.21890000000000004,92.41999999999999,3.0,4.0
NCc1ccc(cc1)[S](N)(=O)=O,water,298,0.321,mol/L,186.23599999999996,-0.20729999999999993,86.18,2.0,3.0
OC[C@H]1O[C@@H](Oc2ccccc2CO)[C@H](O)[C@@H](O)[C@@H]1O,water,298,-0.8547,mol/L,286.28,-1.6424000000000003,119.61000000000001,5.0,7.0
OC1CC(=CC(O)C1O)C(O)=O,water,298,-0.0648,mol/L,174.15199999999996,-1.5162000000000004,97.99000000000001,4.0,4.0
CC(=C)C1CCC(=CC1)C,water,298,-4.2552,mol/L,136.238,3.308900000000002,0.0,0.0,0.0
OC(=O)CN(CC(O)=O)CC(O)=O,water,298,-0.5101,mol/L,191.13899999999998,-1.4577999999999993,115.14000000000001,3.0,4.0
Oc1ccc(C=O)cc1O,water,298,-1.3402,mol/L,138.12199999999999,0.9102999999999999,57.53,2.0,3.0
NC(Cc1sccc1)C(O)=O,water,298,-0.8356,mol/L,171.22099999999998,0.7024999999999999,63.32,2.0,3.0
CC[NH+](CCO)CCO,water,298,0.8755,mol/L,134.199,-2.1241999999999983,44.900000000000006,3.0,2.0
[O-][N+](=O)c1oc(cc1)/C=N/N2CC(CN3CCOCC3)OC2=O,water,298,-2.6359,mol/L,324.29300000000006,0.6747000000000001,110.65,0.0,8.0
CCNC(=O)Nc1sc(cn1)[N+]([O-])=O,water,298,-2.8578,mol/L,216.22199999999998,1.1927,97.16,2.0,5.0
C(CNCc1ccccc1)NCc2ccccc2,water,298,-1.7865,mol/L,240.35,2.5660000000000007,24.06,2.0,2.0
N#CCc1ccccc1,water,298,-3.0687,mol/L,117.15099999999995,1.75268,23.79,0.0,1.0
[Na+].CN(C)c1ccc(cc1)N=N[S]([O-])(=O)=O,water,298,-1.0991,mol/L,251.243,-1.6994999999999976,85.16,0.0,5.0
COc1ccc(CC=C)cc1,water,298,-2.9209,mol/L,148.205,2.4237,9.23,0.0,1.0
OC(=O)CCC1CCCC1,water,298,-1.7691,mol/L,142.19799999999998,2.0414000000000003,37.3,1.0,1.0
CCCCC(CC)COC(=O)\C=C\C(=O)OCC(CC)CCCC,water,298,-3.5321,mol/L,340.5040000000002,5.061800000000005,52.60000000000001,0.0,4.0
CCCCOC(=O)CCC(=O)OCCCC,water,298,-3.0006,mol/L,230.30399999999992,2.4532000000000007,52.60000000000001,0.0,4.0
CCOC(=O)\C=C/C(=O)OCC,water,298,-1.0899,mol/L,172.17999999999995,0.6688,52.60000000000001,0.0,4.0
CCOC(=O)CCCCC(=O)OCC,water,298,-1.6795,mol/L,202.24999999999997,1.673,52.60000000000001,0.0,4.0
NCCO,water,298,1.2141,mol/L,61.083999999999996,-1.0626000000000002,46.25,2.0,2.0
[Na+].[O-]C=O,water,298,0.8049,mol/L,68.007,-4.629899999999999,40.129999999999995,0.0,2.0
C[Si](C)(C)O[Si](C)(C)O[Si](C)(C)O[Si](C)(C)C,water,298,-7.6637,mol/L,310.69100000000003,4.109600000000003,27.69,0.0,3.0
CO[P](=O)(OC)OC(/C)=C/C(=O)N(C)C,water,298,0.6249,mol/L,237.19199999999998,1.3959,65.07000000000001,0.0,5.0
OC(=O)CCI,water,298,-0.43,mol/L,199.97500000000002,0.8961000000000001,37.3,1.0,1.0
CC(C)=CC(C)=O,water,298,-0.531,mol/L,98.145,1.5416,17.07,0.0,1.0
OC(=O)CC(O)=O,water,298,0.8652,mol/L,104.06099999999999,-0.4543,74.6,2.0,2.0
O=C1CSC(=S)N1,water,298,-1.7723,mol/L,133.197,0.13430000000000003,29.1,1.0,3.0
O=C1NC(=S)NC=C1,water,298,-2.2573,mol/L,128.156,0.43248999999999993,48.65,2.0,2.0
O=C1NC=CC=C1,water,298,1.0218,mol/L,95.10099999999998,0.37490000000000007,32.86,1.0,1.0
CC(=O)NCCO,water,298,0.9867,mol/L,103.121,-0.8852,49.33,2.0,2.0
C1CC=CC1,water,298,-2.1049,mol/L,68.11900000000001,1.7265,0.0,0.0,0.0
NC(=S)NNC(N)=S,water,298,-1.7965,mol/L,150.232,-1.4322,76.1,4.0,2.0
[Na+].NC(CCC(O)=O)C([O-])=O,water,298,0.3573,mol/L,169.112,-5.067599999999998,103.44999999999999,2.0,4.0
[Na+].[Na+].[S-]C(=S)NCCNC([S-])=S,water,298,-0.1078,mol/L,256.354,-6.162799999999998,24.06,2.0,4.0
[H+].[H+].[Cl-].[Cl-].C1CNCCN1,water,298,0.4112,mol/L,159.06,-6.587799999999998,24.06,2.0,2.0
CCCCCCOC(C)=O,water,298,-2.451,mol/L,144.21399999999997,2.1298000000000004,26.3,0.0,2.0
CCCCCCCCCCCC(O)=O,water,298,-4.6196,mol/L,200.32199999999997,3.991900000000002,37.3,1.0,1.0
CCCCCCNCCCCCC,water,298,-3.1574,mol/L,185.35499999999996,3.736600000000003,12.03,1.0,1.0
CCCCOCCOCCOCCO,water,298,0.6855,mol/L,206.28199999999995,0.8286,47.92,1.0,4.0
ClC1(Cl)C2(Cl)C3(Cl)C4(Cl)C(=O)C5(Cl)C3(Cl)C1(Cl)C5(Cl)C24Cl,water,298,-5.2594,mol/L,490.63900000000024,4.6182,17.07,0.0,1.0
[Na+].CCC(C)C1(CC)C(=O)NC(=O)[N-]C1=O,water,298,0.1528,mol/L,234.231,-1.4169999999999996,77.34,1.0,3.0
OC(=O)CC1(CC(O)=O)OCOC1=O,water,298,-0.611,mol/L,204.13399999999996,-0.7944999999999998,110.13,2.0,5.0
CC(C)C(O)C(C)(C)CO,water,298,-0.8863,mol/L,146.23,1.0218,40.46,2.0,2.0
[Na+].[Na+].C[As]([O-])([O-])=O,water,298,0.3711,mol/L,183.934,-8.285800000000002,63.19,0.0,3.0
OC(=O)CF,water,298,1.1077,mol/L,78.042,0.040500000000000036,37.3,1.0,1.0
OC(=O)C(O)=O,water,298,0.388,mol/L,90.03399999999999,-0.8443999999999998,74.6,2.0,2.0
Nc1ccc(cc1)[S](=O)(=O)Nc2ccccn2,water,298,-2.9686,mol/L,249.29500000000002,1.4646000000000001,85.08,2.0,4.0
CC(O)C(N)C(O)=O,water,298,0.067,mol/L,119.11999999999999,-1.2208999999999997,83.55000000000001,3.0,3.0
O[C@@H]([C@H](O)C(O)=O)C(O)=O,water,298,0.8236,mol/L,150.08599999999998,-2.1226,115.06,4.0,4.0
OC(C(O)C(O)=O)C(O)=O,water,298,0.5718,mol/L,150.08599999999998,-2.1226,115.06,4.0,4.0
OC1COC(O)C(O)C1O,water,298,0.5225,mol/L,150.13,-2.5823000000000005,90.15,4.0,5.0
Cc1c(cc(cc1[N+]([O-])=O)[N+]([O-])=O)C(N)=O,water,298,-2.3525,mol/L,225.15999999999997,0.9103200000000002,129.37,1.0,5.0
N[S](=O)(=O)c1cc2c(NC=N[S]2(=O)=O)cc1C(F)(F)F,water,298,-0.8186,mol/L,329.281,0.49530000000000046,118.69,2.0,5.0
[nH]1c2ccccc2nc1c3cscn3,water,298,-3.6048,mol/L,201.25400000000002,2.686400000000001,41.57,1.0,3.0
O[S](=O)(=O)OCCOc1ccc(Cl)cc1Cl,water,298,-0.0601,mol/L,287.12,2.1916,72.83,1.0,4.0
OC(=O)c1cc(O)c(O)c(O)c1,water,298,-1.1552,mol/L,170.11999999999998,0.5015999999999998,97.99000000000001,4.0,4.0
CCOc1ccc(NC(N)=O)cc1,water,298,-2.173,mol/L,180.20699999999997,1.5758999999999999,64.35,2.0,2.0
[Na+].[Na+].[O-]C(=O)CCC([O-])=O,water,298,0.0914,mol/L,162.052,-8.725600000000002,80.25999999999999,0.0,4.0
[K+].[C-]#N,water,298,1.0436,mol/L,65.116,-2.8996299999999997,23.79,0.0,1.0
C1CN1,water,298,1.3658,mol/L,43.068999999999996,-0.41040000000000004,21.94,1.0,1.0
CN(C)[P](=O)(O[P](=O)(N(C)C)N(C)C)N(C)C,water,298,0.5433,mol/L,286.25300000000004,1.4655999999999998,56.330000000000005,0.0,3.0
NC1=NC(=O)C(=C(N)N1)O[C@@H]2O[C@H](CO)[C@@H](O)[C@H](O)[C@H]2O,water,298,-1.4832,mol/L,304.259,-3.886999999999999,197.16999999999996,7.0,10.0
ClCCNC(=O)N(CCCl)N=O,water,298,-1.7285,mol/L,214.05199999999996,1.157,61.77,1.0,3.0
OC(=O)Cc1ccc(O)cc1,water,298,-0.3991,mol/L,152.149,1.0192999999999999,57.53,2.0,2.0
C1COC2(C1)CCCO2,water,298,-0.1078,mol/L,128.171,1.3035,18.46,0.0,2.0
c1cc2ccc3ccc4ccc5ccc6ccc1c7c2c3c4c5c67,water,298,-9.3315,mol/L,300.36000000000007,6.919200000000002,0.0,0.0,0.0
c1ccc2c(c1)c3cccc4ccc5cccc2c5c34,water,298,-7.6026,mol/L,252.31599999999997,5.737200000000003,0.0,0.0,0.0
c1ccc2c(c1)c3ccc4ccc5cccc6cc2c3c4c56,water,298,-9.1627,mol/L,276.338,6.2314000000000025,0.0,0.0,0.0
[nH]1c2ccc3ccccc3c2c4c1ccc5ccccc45,water,298,-6.6277,mol/L,267.331,5.627500000000004,15.79,1.0,0.0
c1ccc2c(c1)ccc3ccc4ccccc4c23,water,298,-7.8207,mol/L,228.29399999999998,5.146200000000003,0.0,0.0,0.0
c1ccc2c(c1)ccc3c2cc4cccc5c6ccccc6c3c45,water,298,-8.4806,mol/L,302.37600000000003,6.793600000000004,0.0,0.0,0.0
C1c2cccc3ccc4cccc1c4c23,water,298,-5.2379,mol/L,190.24499999999998,3.8972000000000016,0.0,0.0,0.0
c1ccc2c(c1)ccc3c4cccc5cccc(c45)c23,water,298,-8.004,mol/L,252.31599999999997,5.640400000000003,0.0,0.0,0.0
c1ccc2c(c1)cc3c4ccccc4c5cccc2c35,water,298,-8.2259,mol/L,252.31599999999997,5.640400000000003,0.0,0.0,0.0
c1ccc2cc3c4cccc5cccc(c3cc2c1)c45,water,298,-8.4989,mol/L,252.31599999999997,5.640400000000003,0.0,0.0,0.0
c1ccc2c(c1)ccc3c2ccc4c5ccccc5ccc34,water,298,-7.8097,mol/L,278.354,6.299400000000004,0.0,0.0,0.0
N1c2c(Sc3ccc4ccccc4c13)ccc5ccccc25,water,298,-7.9081,mol/L,299.398,6.201200000000003,12.03,1.0,2.0
N1c2ccc3ccccc3c2Sc4c1ccc5ccccc45,water,298,-6.8786,mol/L,299.398,6.201200000000003,12.03,1.0,2.0
N1c2ccccc2Sc3ccc4ccccc4c13,water,298,-5.8957,mol/L,249.338,5.048000000000002,12.03,1.0,2.0
N1c2ccccc2Sc3c1ccc4ccccc34,water,298,-6.5727,mol/L,249.338,5.048000000000003,12.03,1.0,2.0
c1ccc2c(c1)ccc3nc4c(ccc5ccccc45)cc23,water,298,-6.2447,mol/L,279.342,5.6944000000000035,12.89,0.0,1.0
c1ccc2c(c1)cnc3ccccc23,water,298,-2.7763,mol/L,179.22199999999998,3.388000000000001,12.89,0.0,1.0
[nH]1nc2cncnc2n1,water,298,-0.2319,mol/L,121.103,-0.25210000000000016,67.35,1.0,4.0
C1CN2CCN1CC2,water,298,0.6033,mol/L,112.176,-0.3824000000000001,6.48,0.0,2.0
[nH]1cccn1,water,298,-0.5452,mol/L,68.07900000000001,0.40969999999999995,28.68,1.0,1.0
o1cccn1,water,298,0.3827,mol/L,69.063,0.6746000000000001,26.03,0.0,2.0
c1ccnnc1,water,298,1.0964,mol/L,80.08999999999999,0.4765999999999999,25.78,0.0,2.0
c1cncnc1,water,298,1.0964,mol/L,80.08999999999999,0.4765999999999999,25.78,0.0,2.0
C1CCCCCC1,water,298,-3.5149,mol/L,98.18900000000001,2.7307000000000015,0.0,0.0,0.0
CCO[P](=S)(OCC)Oc1cnccn1,water,298,-2.338,mol/L,248.244,2.1529,53.47,0.0,6.0
CCN(CC)C(=O)/C(Cl)=C(/C)O[P](=O)(OC)OC,water,298,0.5233,mol/L,299.69100000000003,2.7426000000000013,65.07000000000001,0.0,5.0
COC(=O)\C=C(/C)O[P](=O)(OC)OC,water,298,0.6495,mol/L,224.14899999999997,1.4807,71.06,0.0,6.0
CCO[P](=S)(OCC)OCCSCC,water,298,-3.634,mol/L,258.3449999999999,3.053600000000001,27.69,0.0,5.0
C1OC1C2CO2,water,298,1.065,mol/L,86.09,-0.21599999999999997,25.06,0.0,2.0
NC(=O)N1c2ccccc2C=Cc3ccccc13,water,298,-3.3242,mol/L,236.274,3.3872000000000018,46.330000000000005,1.0,1.0
C1CN(CCN1C\C=C\c2ccccc2)C(c3ccccc3)c4ccccc4,water,298,-2.6914,mol/L,368.52400000000006,5.107000000000005,6.48,0.0,2.0
COc1c2occc2cc3C=CC(=O)Oc13,water,298,-3.6576,mol/L,216.19199999999995,2.5478000000000005,52.58,0.0,4.0
N[C@@H](Cc1cc(Br)c(O)c(Br)c1)C(O)=O,water,298,-1.9281,mol/L,338.98300000000006,1.8716000000000002,83.55000000000001,3.0,3.0
N[C@@H](Cc1cc(I)c(O)c(I)c1)C(O)=O,water,298,-2.8441,mol/L,432.98300000000006,1.5557999999999998,83.55000000000001,3.0,3.0
CC[S](=O)CCS[P](=O)(OC)OC,water,298,0.6086,mol/L,246.28999999999996,1.8890999999999998,52.60000000000001,0.0,5.0
NN,water,298,1.4942,mol/L,32.046,-1.1812,52.04,2.0,2.0
OC(O)C(Cl)(Cl)Cl,water,298,0.6807,mol/L,165.403,0.6672999999999998,40.46,2.0,2.0
CCN1C[C@]2(COC)[C@H](O)C[C@H](OC)[C@@]34[C@@H]5C[C@]6(O)[C@@H](OC)[C@H](O)[C@](OC(C)=O)([C@@H]([C@H](OC)[C@H]23)C14)[C@H]5[C@H]6OC(=O)c7ccccc7,water,298,-3.3187,mol/L,645.7460000000002,0.6481000000000052,153.45000000000002,3.0,12.0
CCC(C)(OC(N)=O)C#C,water,298,-0.9456,mol/L,141.17,0.8836000000000002,52.32,1.0,2.0
CC(N)C(O)=O,water,298,0.2703,mol/L,89.09399999999998,-0.5817999999999999,63.32,2.0,2.0
NC(CO)C(O)=O,water,298,-0.4217,mol/L,105.09299999999999,-1.6094000000000002,83.55000000000001,3.0,3.0
[Na+].[K+].O[C@H]([C@@H](O)C([O-])=O)C([O-])=O,water,298,0.3984,mol/L,210.15799999999993,-10.783999999999999,120.72,2.0,6.0
FC(F)(F)C(Cl)Cl,water,298,-1.8623,mol/L,152.93,2.3524000000000003,0.0,0.0,0.0
ClC1=C(Cl)C2(Cl)C3C4CC(C=C4)C3C1(Cl)C2(Cl)Cl,water,298,-7.3317,mol/L,364.914,5.270200000000002,0.0,0.0,0.0
CCO[P](=O)(OCC)O\C=C\Cl,water,298,-1.3316,mol/L,214.585,2.8941000000000017,44.760000000000005,0.0,4.0
NC(CO)C(O)=O,water,298,0.5395,mol/L,105.09299999999999,-1.6094000000000002,83.55000000000001,3.0,3.0
CCC(C)N1C(=O)NC(=C(Br)C1=O)C,water,298,-2.5057,mol/L,261.11899999999997,1.57852,54.86,1.0,3.0
CC(C)N1C(=O)NC(=C(Br)C1=O)C,water,298,-2.0604,mol/L,247.09199999999996,1.1884199999999998,54.86,1.0,3.0
CNC(=O)Oc1cc(C)c(N(C)C)c(C)c1,water,298,-3.3469,mol/L,222.28799999999998,2.08764,41.57,1.0,3.0
CCC(C)C(N)C(O)=O,water,298,-0.5033,mol/L,131.17499999999998,0.44439999999999996,63.32,2.0,2.0
OC(=O)c1cc(Cl)ccc1O,water,298,-1.237,mol/L,172.567,1.7437999999999998,57.53,2.0,2.0
Fc1cccc2ccccc12,water,298,-3.4527,mol/L,146.164,2.978900000000001,0.0,0.0,0.0
CC(=O)Nc1ccc(F)cc1C,water,298,-1.3593,mol/L,167.183,2.0925199999999995,29.1,1.0,1.0
CC(=O)Nc1ccc(C)cc1F,water,298,-1.7403,mol/L,167.18299999999996,2.0925199999999995,29.1,1.0,1.0
Fc1cc(F)c(F)cc1F,water,298,-2.3757,mol/L,150.07399999999998,2.2430000000000003,0.0,0.0,0.0
CCCC[C@H](N)C(O)=O,water,298,-1.0387,mol/L,131.17499999999998,0.5884999999999998,63.32,2.0,2.0
O[C@@H]1C[C@](O)(C[C@@H](OC(=O)\C=C\c2ccc(O)c(O)c2)[C@@H]1O)C(O)=O,water,298,-0.9473,mol/L,354.31100000000004,-0.6459000000000004,164.75,6.0,8.0
CC(C)CC(N)C(O)=O,water,298,-1.0456,mol/L,131.17499999999998,0.44439999999999996,63.32,2.0,2.0
C[P](F)(=O)OC1CCCCC1,water,298,-1.6875,mol/L,180.15899999999993,3.1281000000000017,26.3,0.0,2.0
CC(N)C(O)=O,water,298,0.2674,mol/L,89.09399999999998,-0.5817999999999999,63.32,2.0,2.0
Fc1ccccc1CCl,water,298,-2.541,mol/L,144.576,2.5645000000000007,0.0,0.0,0.0
Fc1ccccc1Cl,water,298,-2.4157,mol/L,130.54899999999998,2.4791000000000007,0.0,0.0,0.0
Fc1ccc(I)cc1,water,298,-3.1257,mol/L,222.0,2.430300000000001,0.0,0.0,0.0
CCSCC,water,298,-1.4596,mol/L,90.191,1.7593999999999999,0.0,0.0,1.0
CCF,water,298,-1.3477,mol/L,48.06,0.9758,0.0,0.0,0.0
Fc1ccccc1F,water,298,-1.0004,mol/L,114.094,1.9647999999999999,0.0,0.0,0.0
Cn1cncc1C[C@H](N)C(O)=O,water,298,0.0727,mol/L,169.184,-0.6255000000000002,81.14000000000001,2.0,4.0
F[P-](F)(F)(F)(F)F.N#[N+]c1ccccc1,water,298,-1.4438,mol/L,250.08200000000005,5.553580000000002,28.15,0.0,1.0
OCCF,water,298,1.1934,mol/L,64.059,-0.05180000000000007,20.23,1.0,1.0
CC(C)N[P](F)(=O)NC(C)C,water,298,-0.3574,mol/L,182.179,2.0599999999999996,41.13,2.0,1.0
CCOC(=O)CC(=O)C(F)(F)F,water,298,-1.362,mol/L,184.11299999999997,1.0710000000000002,43.370000000000005,0.0,3.0
CC(O)C(F)(F)F,water,298,0.3094,mol/L,114.06600000000002,0.9295,20.23,1.0,1.0
FC(F)(F)C(F)(Cl)Cl,water,298,-3.0961,mol/L,170.92000000000002,2.6496,0.0,0.0,0.0
OC(=O)C(F)F,water,298,1.0176,mol/L,96.03200000000001,0.3361,37.3,1.0,1.0
C[C@]12CC(=O)[C@H]3[C@@H](CCC4=CC(=O)CC[C@]34C)[C@@H]1CCC2=O,water,298,-3.4843,mol/L,300.3980000000001,3.2664000000000017,51.21,0.0,3.0
CCN1C=C(C(O)=O)C(=O)c2ccc(C)nc12,water,298,-3.3659,mol/L,232.23899999999998,1.4230200000000002,72.19,1.0,4.0
CCCc1cc(F)ccc1O,water,298,-1.887,mol/L,154.18399999999997,2.483800000000001,20.23,1.0,1.0
NC(=O)N(CCO)/N=C/c1oc(cc1)[N+]([O-])=O,water,298,-2.6852,mol/L,242.191,-0.10529999999999967,135.20000000000002,2.0,6.0
NC#N,water,298,1.0753,mol/L,42.041,-0.57382,49.81,1.0,2.0
OC(=O)c1ccccc1C(F)(F)F,water,298,-1.5978,mol/L,190.11999999999995,2.403600000000001,37.3,1.0,1.0
C[C@]12CCC(=O)C=C1CC[C@@H]3[C@@H]2CC[C@@]4(C)[C@H]3CC[C@@]4(O)C#C,water,298,-5.6576,mol/L,312.45300000000003,3.8826000000000027,37.3,1.0,2.0
C[C@H](CCC(O)=O)[C@H]1CC[C@H]2[C@@H]3CC[C@@H]4C[C@H](O)CC[C@]4(C)[C@H]3CC[C@]12C,water,298,-6.0,mol/L,376.5810000000002,5.507100000000006,57.53,2.0,2.0
C[C@]12CC[C@H]3[C@@H](CCC4=CC(=O)CC[C@H]34)[C@@H]1CC[C@@H]2O,water,298,-1.9484,mol/L,274.40399999999994,3.4891000000000028,37.3,1.0,2.0
C[C@H]1C[C@H]2OC(=O)[C@@H](C)[C@H]2[C@H](O)C3=C(C)C(=O)C[C@H]13,water,298,-1.945,mol/L,264.32099999999997,1.4703,63.6,1.0,4.0
CCC(=O)N(C1CCN(CC1)CCc2ccccc2)c3ccccc3,water,298,-3.2259,mol/L,336.479,4.136700000000003,23.550000000000004,0.0,2.0
CC(=O)NCc1c(I)c(NC(C)=O)c(I)c(C(O)=O)c1I,water,298,-2.3208,mol/L,627.9420000000002,2.793100000000001,95.5,3.0,3.0
CC[C@H](C)[C@@H](N)C(O)=O,water,298,-0.7875,mol/L,131.17499999999998,0.44439999999999996,63.32,2.0,2.0
OC(=O)Cc1cc(O)ccc1O,water,298,0.7037,mol/L,168.148,0.7248999999999999,77.76,3.0,3.0
Nc1ncc2[nH]cnc2n1,water,298,-1.21,mol/L,135.13,-0.06490000000000012,80.48,2.0,4.0
OC1CCOC1,water,298,1.055,mol/L,88.106,-0.23239999999999994,29.46,1.0,2.0
OC(=O)c1ccc(F)c(c1)[N+]([O-])=O,water,298,-1.5809,mol/L,185.10999999999999,1.4320999999999997,80.44,1.0,3.0
Fc1cccc(CCl)c1,water,298,-2.5436,mol/L,144.57600000000002,2.5645000000000007,0.0,0.0,0.0
CCC[C@H]1CCCCN1,water,298,-0.8493,mol/L,127.23100000000001,1.9286,12.03,1.0,1.0
COCC(F)F,water,298,-0.2836,mol/L,96.07600000000001,0.8979000000000001,9.23,0.0,1.0
NC(N)=NC#N,water,298,-0.3087,mol/L,84.082,-1.2591199999999998,88.19,2.0,2.0
Nc1cccnc1,water,298,1.0263,mol/L,94.117,0.6638000000000001,38.91,1.0,2.0
NC(=O)NCC(O)=O,water,298,-0.5809,mol/L,118.09199999999998,-1.2607,92.42000000000002,3.0,2.0
NC(=O)NCCC(O)=O,water,298,-0.8014,mol/L,132.119,-0.8706,92.42000000000002,3.0,2.0
CC1(C)C2CCC1(C)[C@@H](O)C2,water,298,-2.319,mol/L,154.253,2.1935000000000002,20.23,1.0,1.0
CC1(C)[C@H]2CC[C@@]1(C)C(=O)C2,water,298,-3.1825,mol/L,152.237,2.401700000000001,17.07,0.0,1.0
O[C@@]12CCO[C@@]1(Nc3ccccc23)[C@@H]4C[C@@H]5CCN4C[C@@H]5C=C,water,298,-2.6706,mol/L,312.41300000000007,2.3127000000000004,44.730000000000004,2.0,4.0
CC[C@@]12CCCN3CC[C@@]4([C@@H](CC1)N(C(C)=O)c5c(OC)cccc45)[C@@H]23,water,298,-1.3269,mol/L,354.4940000000001,3.7264000000000026,32.78,0.0,3.0
OC(=O)[C@@]1(O)c2ccccc2c3ccccc13,water,298,-1.9657,mol/L,226.231,1.9875000000000003,57.53,2.0,2.0
CCC(=O)O[C@@](Cc1ccccc1)([C@H](C)CN(C)C)c2ccccc2,water,298,-5.0097,mol/L,339.47900000000004,4.275500000000004,29.54,0.0,3.0
CC12CCC(CC1)C(C)(C)O2,water,298,-1.6442,mol/L,154.253,2.7441000000000013,9.23,0.0,1.0
ClCC[S](=O)(=O)CCCl,water,298,-1.5031,mol/L,191.07899999999998,0.8788,34.14,0.0,2.0
CN=C(N)N,water,298,-1.6135,mol/L,73.099,-1.1103999999999996,64.39999999999999,2.0,1.0
Nc1ccc(cc1)[S](=O)(=O)c2sc(N)nc2,water,298,-2.805,mol/L,255.32399999999998,1.1403,99.07000000000001,2.0,6.0
Cc1ccc(cc1)[S](=O)(=O)N(Cl)Cl,water,298,-3.466,mol/L,240.111,2.2933200000000005,37.38,0.0,2.0
CC(=O)C1CC(CC(O)=O)C1(C)C,water,298,-0.5752,mol/L,184.23499999999999,1.7124,54.37,1.0,2.0
C[C@H](CCC(O)=O)[C@H]1CC[C@H]2[C@@H]3[C@H](O)C[C@@H]4C[C@H](O)CC[C@]4(C)[C@H]3CC[C@]12C,water,298,-3.6402,mol/L,392.5800000000002,4.477900000000004,77.76,3.0,3.0
C[C@]12CC[C@H]3C(=CCc4cc(O)ccc34)[C@@H]1CCC2=O,water,298,-5.2795,mol/L,268.356,3.7375000000000025,37.3,1.0,2.0
Oc1ccc2c(OCC3(O)CC4=CC(=O)C(=CC4=C23)O)c1O,water,298,-2.6994,mol/L,300.266,1.3296,107.22,4.0,6.0
C[C@H](CCC(=O)NCC(O)=O)[C@H]1CC[C@H]2[C@@H]3[C@H](O)C[C@@H]4C[C@H](O)CC[C@]4(C)[C@H]3C[C@H](O)[C@]12C,water,298,-5.1495,mol/L,465.6310000000003,2.564899999999999,127.09000000000002,5.0,5.0
COc1cc(cc(OC)c1OC)[C@H]2[C@H]3[C@H](COC3=O)[C@@H](O)c4cc5OCOc5cc24,water,298,-3.6174,mol/L,414.4100000000002,2.4092000000000002,92.68,1.0,8.0
[Cl-].Cc1cc2nc3c(C)c(N)ccc3[n+](c4ccccc4)c2cc1N,water,298,-0.8462,mol/L,350.85300000000007,0.44994000000000145,68.81,2.0,3.0
CN1C(=O)N(C)c2ncn(CC(O)CO)c2C1=O,water,298,0.1172,mol/L,254.24599999999995,-2.2130999999999985,102.28,2.0,8.0
C1Cc2c3ccc4ccccc4c3cc5cccc1c25,water,298,-7.8613,mol/L,254.33199999999997,5.244800000000003,0.0,0.0,0.0
Nc1cccc2cccc(N)c12,water,298,-2.2698,mol/L,158.20399999999998,2.0042,52.04,2.0,2.0
CN(c1c(cc(cc1[N+]([O-])=O)[N+]([O-])=O)[N+]([O-])=O)[N+]([O-])=O,water,298,-3.5889,mol/L,287.144,1.0391,175.79999999999998,0.0,8.0
OC[C@H]1O[C@@H](O[C@@H]2OC=C[C@H]3[C@H](O)C=C(CO)[C@@H]23)[C@H](O)[C@@H](O)[C@@H]1O,water,298,0.0119,mol/L,346.33200000000005,-2.8014999999999985,149.07,6.0,9.0
Oc1ccc(c(O)c1)C2=C(O)C(=O)c3c(O)cc(O)cc3O2,water,298,-3.0824,mol/L,302.238,1.9879999999999998,131.36,5.0,7.0
Cc1cc(C)c(c(C)c1)C(O)=O,water,298,-2.3566,mol/L,164.20399999999998,2.31006,37.3,1.0,1.0
Cc1cc(O)c(C(O)=O)c(O)c1,water,298,-2.0496,mol/L,168.148,1.1044199999999997,77.76,3.0,3.0
[O-][N+](=O)C1C(=O)NC(=O)NC1=O,water,298,-2.284,mol/L,173.084,-2.0023,118.41,2.0,5.0