Solute,Solvent,Temperature_K,Solubility,Units,MW,LogP,TPSA,HBD,HBA
CC(=O)Oc1ccccc1C(=O)OC[S](C)(=O)=O,water,298,-3.3936,mol/L,272.27799999999996,0.7708,86.74000000000001,0.0,6.0
CC(Oc1ccccc1Cl)C(O)=O,water,298,-2.2232,mol/L,200.62099999999995,2.1919,46.53,1.0,2.0
CC(Oc1ccc(Oc2cnc3cc(Cl)ccc3n2)cc1)C(O)=O,water,298,-6.0604,mol/L,344.7540000000001,3.9274000000000022,81.53999999999999,1.0,5.0
CCOC(=O)C(C)Oc1ccc(Oc2cnc3cc(Cl)ccc3n2)cc1,water,298,-6.0944,mol/L,372.8080000000001,4.4059000000000035,70.54,0.0,6.0
OC(Cn1cncn1)(c2ccc(F)cc2)c3ccccc3F,water,298,-3.3651,mol/L,301.296,2.492400000000001,50.94,1.0,4.0
Clc1cccc(c2cc(Cl)c(Cl)c(Cl)c2)c1Cl,water,298,-7.4052,mol/L,326.437,6.620600000000001,0.0,0.0,0.0
[NH4+].C[P](O)(=O)CCC(N)C([O-])=O,water,298,0.8397,mol/L,198.159,-1.2699000000000005,139.95000000000002,3.0,4.0
CC(C)C[C@H](N)C(=O)N[C@@H](C)C(=O)NCC(O)=O,water,298,-0.8953,mol/L,259.306,-0.9346999999999979,121.52000000000001,4.0,4.0
CCOC(=O)N(C)CC,water,298,-0.4189,mol/L,131.175,1.0946,29.54,0.0,2.0
CCCS[P](=O)(OCC)Oc1cnn(c1)c2ccc(Cl)cc2,water,298,-4.0388,mol/L,360.803,5.192300000000004,53.35,0.0,6.0
CCOC(=O)C(C)OC(=O)c1cc(Oc2ccc(cc2Cl)C(F)(F)F)ccc1[N+]([O-])=O,water,298,-6.6644,mol/L,461.77600000000007,5.1677000000000035,104.97,0.0,7.0
CCOC(=O)COC(=O)c1cc(Oc2ccc(cc2Cl)C(F)(F)F)ccc1[N+]([O-])=O,water,298,-5.8729,mol/L,447.74900000000014,4.779200000000003,104.97,0.0,7.0
CCOC(CC(C)O)OCC,water,298,0.0909,mol/L,162.22899999999998,1.1564,38.69,1.0,3.0
NN=C1N=CNc2nccnc12,water,298,-1.8632,mol/L,162.156,-0.8726999999999998,92.84,2.0,5.0
COCC(=O)N(N1CCOC1=O)c2c(C)cccc2C,water,298,-1.913,mol/L,278.30800000000005,1.6500399999999997,59.080000000000005,0.0,4.0
CCCCCCNC(=O)c1cccnc1,water,298,-2.5221,mol/L,206.28900000000002,2.3917,41.99,1.0,2.0
CCC1(C(=O)NC(=O)N(CC(O)CO)C1=O)c2ccccc2,water,298,-1.7872,mol/L,306.318,-0.23399999999999976,106.94,3.0,5.0
C[C@H]1C(SC(=O)N1C(=O)NC2CCCCC2)c3ccc(Cl)cc3,water,298,-5.8487,mol/L,352.88699999999994,4.980700000000004,49.410000000000004,1.0,3.0
CCCCOC(=O)[C@@H](C)Oc1ccc(Oc2ccc(cn2)C(F)(F)F)cc1,water,298,-5.2826,mol/L,383.366,5.003300000000004,57.650000000000006,0.0,5.0
COC(=O)c1sccc1[S](=O)(=O)NC(=O)Nc2nc(C)nc(OC)n2,water,298,-2.2379,mol/L,387.39900000000017,0.5471199999999999,149.46999999999997,2.0,10.0
Cc1c(F)c(F)c(COC(=O)C2C(\C=C(/Cl)C(F)(F)F)C2(C)C)c(F)c1F,water,298,-7.3209,mol/L,418.7360000000001,5.551820000000002,26.3,0.0,2.0
CCC(CC)C(=O)N(CC)CC,water,298,-1.0876,mol/L,171.284,2.2910000000000004,20.310000000000002,0.0,1.0
CCC(C)(C)C(=O)O[C@H]1C[C@@H](C)C=C2C=C[C@H](C)[C@H](CC[C@@H]3C[C@@H](O)CC(=O)O3)[C@@H]12,water,298,-7.1447,mol/L,418.57400000000024,4.585600000000005,72.83,1.0,5.0
CCCCC(O)(Cn1cncn1)c2ccc(Cl)cc2Cl,water,298,-4.2668,mol/L,314.216,3.6629000000000023,50.94,1.0,4.0
CC(C)c1cc(Oc2ccccc2)cc(C(C)C)c1NC(=S)NC(C)(C)C,water,298,-6.8068,mol/L,384.58900000000006,6.810600000000006,33.29,2.0,2.0
CCOc1ccc(cc1)C(C)(C)COCc2cccc(Oc3ccccc3)c2,water,298,-8.5758,mol/L,376.49600000000004,6.372000000000007,27.69,0.0,3.0
CC(C)C1(C)N=C(NC1=O)c2ncccc2C(O)=O,water,298,-1.364,mol/L,261.281,1.0709,91.65,2.0,4.0
CC(C)C1(C)N=C(NC1=O)c2nc3ccccc3cc2C(O)=O,water,298,-3.539,mol/L,311.34100000000007,2.2241,91.65,2.0,4.0
CCc1cnc(C2=NC(C)(C(C)C)C(=O)N2)c(c1)C(O)=O,water,298,-2.3153,mol/L,289.33500000000004,1.6333000000000002,91.65,2.0,4.0
COC(=O)c1ccc(C)cc1C2=NC(C)(C(C)C)C(=O)N2,water,298,-2.4599,mol/L,288.347,2.07272,67.75999999999999,1.0,4.0
CCCCCCC(C)OC(=O)COc1nc(F)c(Cl)c(N)c1Cl,water,298,-6.6107,mol/L,367.24800000000005,4.390600000000003,74.44,1.0,5.0
CCCCCCCCNC(=O)c1cccnc1,water,298,-3.0081,mol/L,234.34300000000002,3.1719000000000017,41.99,1.0,2.0
CCCCCCCCCNC(=O)c1cccnc1,water,298,-3.1398,mol/L,248.37000000000003,3.562000000000002,41.99,1.0,2.0
CCCCCCCCCCNC(=O)c1cccnc1,water,298,-3.0765,mol/L,262.397,3.9521000000000024,41.99,1.0,2.0
CCCCCCCCCCCNC(=O)c1cccnc1,water,298,-3.0266,mol/L,276.424,4.342200000000004,41.99,1.0,2.0
CCCCCCCCCCCCNC(=O)c1cccnc1,water,298,-3.2078,mol/L,290.45099999999996,4.732300000000004,41.99,1.0,2.0
CC1(C)CON(Cc2ccccc2Cl)C1=O,water,298,-2.3383,mol/L,239.702,2.6400000000000006,29.54,0.0,2.0
COc1nc(C)nc(NC(=O)N[S](=O)(=O)c2ccccc2OCCCl)n1,water,298,-4.0989,mol/L,401.83200000000016,1.3166199999999995,132.4,2.0,8.0
ON=C1C=CC(=NO)c2ncccc12,water,298,-3.7998,mol/L,189.174,1.008,78.07000000000001,2.0,5.0
CC(C)(C)[C@H](O)[C@H](Oc1ccc(Cl)cc1)n2cncn2,water,298,-3.9524,mol/L,295.77,2.916100000000001,60.17,1.0,5.0
OC(c1ccccc1)c2cc(Cl)ccc2NC(=O)c3ccncc3,water,298,-5.5299,mol/L,338.79400000000004,4.069000000000003,62.22,2.0,3.0
CCC(C)(CC)c1cc(NC(=O)c2c(OC)cccc2OC)on1,water,298,-5.3694,mol/L,332.40000000000003,4.0218000000000025,73.59,1.0,5.0
CCOC(C)CCO,water,298,-0.3736,mol/L,118.176,0.7938000000000001,29.46,1.0,2.0
Cc1c(COC(=O)C2C(\C=C(/Cl)C(F)(F)F)C2(C)C)cccc1c3ccccc3,water,298,-6.6262,mol/L,422.8740000000001,6.662420000000005,26.3,0.0,2.0
Cn1nc(C)c(C(=O)c2ccc(Cl)c(C)c2Cl)c1OCC(=O)c3ccc(C)cc3,water,298,-6.5209,mol/L,431.31900000000024,5.144860000000005,61.190000000000005,0.0,5.0
COC(=O)c1ccccc1C[S](=O)(=O)NC(=O)Nc2nc(OC)cc(OC)n2,water,298,-3.534,mol/L,410.40800000000013,0.9319000000000001,145.81,2.0,9.0
Fc1cccc(F)c1C(=O)NC(=O)Nc2cc(Cl)c(F)c(Cl)c2F,water,298,-7.3023,mol/L,381.1120000000001,4.511700000000001,58.2,2.0,2.0
CCOC(=O)CCN(Cc1ccccc1)SN(C)C(=O)O\N=C(\C)SC,water,298,-4.3005,mol/L,399.5380000000002,3.7698000000000027,71.44,0.0,8.0
Fc1ccc(NC(=O)c2cccnc2Oc3cccc(c3)C(F)(F)F)c(F)c1,water,298,-6.8969,mol/L,394.29900000000004,5.423200000000001,51.22,1.0,3.0
OC(=O)C(I)=C(Br)I,water,298,-1.2891,mol/L,402.751,2.5050000000000003,37.3,1.0,1.0
CC(C)(C)[C@H](O)\C(=C/c1ccc(Cl)cc1)n2cncn2,water,298,-4.5403,mol/L,291.782,3.3366000000000025,50.94,1.0,4.0
CC(C)(C)C(O)\C(=C/c1ccc(Cl)cc1)n2cncn2,water,298,-4.5403,mol/L,291.782,3.3366000000000025,50.94,1.0,4.0
CC(C)(C)C(O)\C(=C/c1ccc(Cl)cc1Cl)n2cncn2,water,298,-4.9115,mol/L,326.22700000000003,3.990000000000003,50.94,1.0,4.0
CCCC(=O)N(CS[P](=S)(OC)OC)c1ccccc1Cl,water,298,-5.204,mol/L,367.86,4.681100000000004,38.77,0.0,5.0
OC(=O)c1ccc(c2cccnc12)[N+]([O-])=O,water,298,-3.1656,mol/L,218.16799999999998,1.8411999999999995,93.32999999999998,1.0,4.0
CCOC(=O)C1(C)OC(=O)N(C1=O)c2cc(Cl)cc(Cl)c2,water,298,-5.2203,mol/L,332.139,2.798400000000001,72.91,0.0,5.0
Nc1ncc2ncn(COCCO)c2n1,water,298,-1.0775,mol/L,209.20899999999997,-0.6251000000000002,99.08,2.0,7.0
CC(Oc1ccc(Cl)c(C)c1Cl)C(=O)Nc2ccccc2,water,298,-7.0057,mol/L,324.207,4.7078200000000034,38.33,1.0,2.0
CCCCCS[S](=O)CCCCC,water,298,-3.1711,mol/L,222.41899999999995,3.7637000000000027,17.07,0.0,2.0
COCCCCC=O,water,298,0.4574,mol/L,116.16,1.002,26.3,0.0,2.0
CCC(=O)OCc1ccc(Cl)cc1Cl,water,298,-3.0665,mol/L,233.094,3.446600000000002,26.3,0.0,2.0
C[Si](Cn1cncn1)(c2ccc(F)cc2)c3ccc(F)cc3,water,298,-3.7665,mol/L,315.399,1.9885,30.71,0.0,3.0
OC(=O)C1=CN(C2CC2)c3cc(N4CCNCC4)c(F)cc3C1=O,water,298,-1.0432,mol/L,331.34700000000004,1.5833,74.57,2.0,5.0
CCN(C(C)C(C)C)C(=O)SCc1ccccc1,water,298,-4.7337,mol/L,265.42199999999997,4.406200000000004,20.310000000000002,0.0,2.0
COC(=O)c1ccccc1[S](=O)(=O)NC(=O)Nc2nc(OC(F)F)cc(OC(F)F)n2,water,298,-5.152,mol/L,468.34100000000007,1.9763999999999997,145.81,2.0,9.0
Clc1ccc(CSC(Cn2cncn2)=Nc3ccc(Cl)cc3Cl)cc1,water,298,-5.3842,mol/L,411.7450000000001,5.901900000000002,43.07,0.0,5.0
CCc1cccc(C)c1N(COC(C)C)C(=O)CCl,water,298,-3.1882,mol/L,283.7989999999999,3.511720000000002,29.54,0.0,2.0
Fc1cccc(F)c1C(=O)NC(=O)Nc2ccc(Cl)c(Oc3ncc(cc3Cl)C(F)(F)F)c2,water,298,-7.4033,mol/L,506.21400000000017,6.439600000000003,80.32000000000001,2.0,4.0
CCOc1ccc(NC(=O)OC(C)C)cc1OCC,water,298,-4.0022,mol/L,267.325,3.440900000000002,56.790000000000006,1.0,4.0
CCOCCOC(=O)C(C)Oc1ccc(Oc2ncc(cc2Cl)C(F)(F)F)cc1,water,298,-5.8739,mol/L,433.81000000000006,4.893100000000004,66.88000000000001,0.0,6.0
CCc1cccc(CC)c1N(COC\C=C/C)C(=O)CCl,water,298,-4.0287,mol/L,309.837,3.9334000000000033,29.54,0.0,2.0
CCCCCOC(=O)COc1cc(N2C(=O)C3=C(CCCC3)C2=O)c(F)cc1Cl,water,298,-6.3508,mol/L,423.86800000000017,4.335100000000004,72.91,0.0,5.0
COCC(C)N(C(=O)CCl)c1c(C)scc1C,water,298,-2.3614,mol/L,275.80100000000004,2.9716400000000016,29.54,0.0,3.0
CC(Oc1ccc(Oc2ncc(Cl)cc2Cl)cc1)C(=O)N3CCCO3,water,298,-4.5922,mol/L,383.2310000000002,4.111900000000003,60.89,0.0,5.0
CC(C)C12CCC(C)(O1)C(C2)OCc3ccccc3C,water,298,-3.6391,mol/L,274.404,4.2478200000000035,18.46,0.0,2.0
FC(F)(F)C(=N/OCC1OCCO1)/c2ccc(Cl)cc2,water,298,-4.0138,mol/L,309.671,2.9959000000000016,40.05,0.0,4.0
OC(=O)C(Br)=C(Cl)Br,water,298,-1.0071,mol/L,264.3,2.2687000000000004,37.3,1.0,1.0
OC(=O)C(Cl)=C(Br)Br,water,298,-0.6873,mol/L,264.3,2.2687000000000004,37.3,1.0,1.0
CCC(OCCCOC)OC(C)=O,water,298,0.0085,mol/L,190.23899999999998,1.3387,44.760000000000005,0.0,4.0
CC(O)C([N+]([O-])=O)[N+]([O-])=O,water,298,0.0789,mol/L,150.09,-0.7533000000000001,106.50999999999999,1.0,5.0
Cc1cc(C)nc(N\N=C(\C)c2ccccc2C)n1,water,298,-3.1959,mol/L,254.33700000000002,3.237960000000002,50.17,1.0,4.0
CN1C(=O)N=CC2=C1NC(=O)N2,water,298,-0.794,mol/L,166.14,-1.0501000000000005,83.53999999999999,2.0,4.0
CC(C)(C)[C@@H](O)[C@H](Oc1ccc(Cl)cc1)n2cncn2,water,298,-3.6786,mol/L,295.77,2.916100000000001,60.17,1.0,5.0
C[C@@H](CCO)CCC=O,water,298,-1.0732,mol/L,130.18699999999998,0.984,37.3,1.0,2.0
CN1C=C2N=CC=NC2=NC1=O,water,298,-0.9089,mol/L,162.152,-0.2765000000000002,60.67,0.0,5.0
O=C1OCc2ccc(cc12)C#N,water,298,-2.7021,mol/L,159.14399999999998,1.22868,50.09,0.0,3.0
CC[S](=O)(=O)C(C)(CO)[S](=O)(=O)CC,water,298,-0.1653,mol/L,244.33399999999997,-0.4357,88.50999999999999,1.0,5.0
COc1c(N)c(C=O)ccc1O,water,298,-0.2232,mol/L,167.164,0.7955000000000001,72.55,2.0,4.0
COC(=O)c1ccc(cc1C([O-])=O)[N+]([O-])=O,water,298,-2.0558,mol/L,224.14799999999997,-0.2551000000000002,109.57000000000002,0.0,6.0
OC(=O)CC[C@H](NCCC#N)C(O)=O,water,298,-1.3015,mol/L,200.194,-0.19231999999999988,110.42000000000002,3.0,4.0
CCC1(CC(C)=O)C(=O)NC(=O)NC1=O,water,298,-0.7661,mol/L,212.20499999999998,-0.2720999999999999,92.34,2.0,4.0
CCCCCCC(O)C(O)C(O)=O,water,298,-1.5469,mol/L,190.23899999999998,0.7631999999999999,77.75999999999999,3.0,3.0
Cc1cnc2c(ccc(Cl)c2C(O)=O)c1,water,298,-2.9973,mol/L,221.64299999999997,2.89482,50.190000000000005,1.0,2.0
CC[C@H](C)[C@H](NCCC#N)C(O)=O,water,298,-0.9818,mol/L,184.23899999999998,0.98898,73.12,2.0,3.0
CCc1nc2cnc(O)nc2nc1CC,water,298,-2.2644,mol/L,204.23299999999995,1.2501999999999998,71.79,1.0,5.0
CC(C)(OC1CCCCC1)C(O)=O,water,298,-1.0798,mol/L,186.251,2.1989,46.53,1.0,2.0
COC(CC(O)=O)c1ccccc1,water,298,-1.6952,mol/L,180.203,1.8488,46.53,1.0,2.0
[O-][N+](=O)C1C(=O)CC(CC1=O)c2ccccc2,water,298,-1.6688,mol/L,233.223,1.3475,77.28,0.0,4.0
OC(O)(C(=O)Nc1ccccc1)C(=O)Nc2ccccc2,water,298,-2.4568,mol/L,286.28700000000003,0.9446999999999998,98.66,4.0,4.0
CC=CCC1(C)C(=O)NC(=O)N(C)C1=O,water,298,-1.5445,mol/L,210.23299999999998,0.6671,66.48,1.0,3.0
CCOC(=O)C(O)C=C,water,298,0.3627,mol/L,130.14299999999997,0.09639999999999987,46.53,1.0,3.0
CC1CCCC(O1)OC2CCCC(C)O2,water,298,-1.1083,mol/L,214.30499999999995,2.8332000000000015,27.69,0.0,3.0
CCCO[P](=O)(OC)OCCC,water,298,-0.6592,mol/L,196.18299999999996,2.594100000000001,44.760000000000005,0.0,4.0
CN1C=NC2=C(N(C)C(=O)N(C)C2=O)C1=O,water,298,-1.985,mol/L,222.20399999999998,-1.6690999999999991,78.89,0.0,7.0
[O-]C(=O)CN[S](=O)(=O)c1ccc2ccccc2c1,water,298,-2.8497,mol/L,264.282,-0.13199999999999967,86.29999999999998,1.0,4.0
CCCCc1c2ccccc2cc3ccc4ccccc4c13,water,298,-7.5245,mol/L,284.40200000000004,6.488800000000005,0.0,0.0,0.0
CCC(Br)(Br)C(O)=O,water,298,-0.8722,mol/L,245.89799999999997,1.9671,37.3,1.0,1.0
CCOC(=O)c1cnn(C)c1[S](=O)(=O)NC(=O)Nc2nc(OC)cc(OC)n2,water,298,-4.4561,mol/L,414.4000000000002,-0.08559999999999879,163.62999999999994,2.0,11.0
OC(=O)CNC(=O)CN[S](=O)(=O)c1ccc2ccccc2c1,water,298,-2.6954,mol/L,322.34200000000004,0.3189000000000006,112.57,3.0,4.0
CC(C1CC1)C(O)(Cn2cncn2)c3ccc(Cl)cc3,water,298,-3.3189,mol/L,291.78200000000004,2.865400000000001,50.94,1.0,4.0
COCCOc1ccccc1[S](=O)(=O)NC(=O)Nc2nc(OC)nc(OC)n2,water,298,-3.5372,mol/L,413.41200000000015,0.42440000000000017,150.86,2.0,10.0
CCO[P](=O)(SC(C)CC)SC(C)CC,water,298,-3.0376,mol/L,270.4,5.194400000000004,26.3,0.0,4.0
OC(=O)COC1CCCC1,water,298,-0.8471,mol/L,144.17,1.0301999999999998,46.53,1.0,2.0
CCO[P](=S)(OC(C)C)Oc1cnc(nc1)C(C)(C)C,water,298,-4.7626,mol/L,318.3790000000001,3.8389000000000033,53.47,0.0,6.0
CC(C)(C)N1N=CC(=C(Cl)C1=O)SCc2ccc(cc2)C(C)(C)C,water,298,-7.483,mol/L,364.9420000000001,5.241500000000005,34.89,0.0,4.0
COc1ccsc1CN(C(=O)CCl)c2c(C)cccc2C,water,298,-4.4689,mol/L,323.845,4.145540000000003,29.54,0.0,3.0
CNC1=C(C(=O)C(O1)c2ccccc2)c3cccc(c3)C(F)(F)F,water,298,-3.9788,mol/L,333.309,3.934000000000003,38.33,1.0,3.0
CCCCCCCCCCCCCCNC(=O)C(C)O,water,298,-3.9784,mol/L,285.472,4.184500000000003,49.33,2.0,2.0