Solute,Solvent,Temperature_K,Solubility,Units,MW,LogP,TPSA,HBD,HBA
NCC1CCC(CC1)C(O)=O,water,298,0.0255,mol/L,157.213,0.8361000000000001,63.32,2.0,2.0
Cc1cc(C)c2ccccc2n1,water,298,-1.9424,mol/L,157.21599999999998,2.8516400000000006,12.89,0.0,1.0
Oc1c(O)c(Cl)c(Cl)c(Cl)c1Cl,water,298,-4.9629,mol/L,247.892,3.7113999999999994,40.46,2.0,2.0
CC(NC(=O)c1ccccc1)C(O)=O,water,298,-1.6839,mol/L,193.20199999999997,0.8895,66.4,2.0,2.0
COC(=O)CNC(=O)c1ccccc1,water,298,-1.0556,mol/L,193.20200000000003,0.5893999999999995,55.4,1.0,3.0
CN1c2ccccc2Sc3ccccc13,water,298,-5.5934,mol/L,213.30499999999998,3.919100000000002,3.24,0.0,2.0
C(Nc1ncnc2nc[nH]c12)c3ccccc3,water,298,-3.5745,mol/L,225.25500000000002,1.9649999999999999,66.49000000000001,2.0,4.0
CCCCCCCCOC(=O)c1ccc(O)cc1,water,298,-4.2224,mol/L,250.33800000000002,3.909500000000003,46.53,1.0,3.0
CC1COCc2cc3c(cc12)C(C)(C)C(C)C3(C)C,water,298,-5.1693,mol/L,258.405,4.525200000000004,9.23,0.0,1.0
[Br-].CC[n+]1c2cc(N)ccc2c3ccc(N)cc3c1c4ccccc4,water,298,-1.2948,mol/L,394.31600000000014,1.1358000000000017,55.92,2.0,2.0
CCCCC(CC)CO[P](=O)(Oc1ccccc1)Oc2ccccc2,water,298,-5.2804,mol/L,362.40600000000006,6.485500000000006,44.760000000000005,0.0,4.0
CN1N(C(=O)C(=C1C)CC2=C(C)N(C)N(C2=O)c3ccccc3)c4ccccc4,water,298,-2.9549,mol/L,388.47100000000006,2.8730400000000014,53.86,0.0,6.0
Cc1c(C(O)=O)c(O)cc2C(=O)c3c(O)c(O)c([C@H]4O[C@H](CO)[C@@H](O)[C@H](O)[C@H]4O)c(O)c3C(=O)c12,water,298,-2.5784,mol/L,492.3890000000002,-1.1940800000000003,242.50999999999996,9.0,12.0
Cc1cccc2ccccc12,water,298,-3.755,mol/L,142.201,3.148220000000002,0.0,0.0,0.0
Cc1cccc(C)c1,water,298,-3.0007,mol/L,106.16799999999999,2.30344,0.0,0.0,0.0
Cc1ccc(O[P](=O)(Oc2ccc(C)cc2)Oc3ccc(C)cc3)cc1,water,298,-6.01,mol/L,368.3690000000001,6.256760000000005,44.760000000000005,0.0,4.0
CC(C)C(C)C(C)C(O)C#CC(C)C(C)O,water,298,-2.2756,mol/L,226.35999999999999,2.2958000000000003,40.46,2.0,2.0
Cc1c(C(O)=O)c(O)cc2C(=O)c3c(O)c(O)c(C4OC(CO)C(O)C(O)C4O)c(O)c3C(=O)c12,water,298,-2.5784,mol/L,492.3890000000002,-1.1940800000000003,242.50999999999996,9.0,12.0
OC[C@H]1O[C@H]([C@H](O)[C@@H](O)[C@@H]1O)[C@@H]2c3cccc(O)c3C(=O)c4c(O)cc(CO)cc24,water,298,-1.7025,mol/L,418.39800000000025,-0.8912000000000002,167.91,7.0,9.0
NCCO.Oc1ccc(Cl)cc1C(=O)Nc2ccc(cc2Cl)[N+]([O-])=O,water,298,-3.5891,mol/L,388.20700000000005,2.796900000000001,138.72000000000003,4.0,6.0
C1CN(CCO1)C(c2ccccc2)(c3ccccc3)c4ccccc4,water,298,-7.2168,mol/L,329.44300000000004,4.310700000000003,12.47,0.0,2.0
CC(C)(C)c1cc(cc(c1O)[N+]([O-])=O)[N+]([O-])=O,water,298,-4.7274,mol/L,240.21499999999997,2.506100000000002,106.50999999999999,1.0,5.0
[O-][N+](=O)c1ccc(NN=C2C=CC(=O)C=C2)cc1,water,298,-4.796,mol/L,243.222,2.0578,84.6,1.0,5.0
NC(=O)c1ccccn1,water,298,0.1685,mol/L,122.12699999999997,0.18049999999999994,55.980000000000004,1.0,2.0
CCCCCCCCCCCCCCCCCO,water,298,-7.506,mol/L,256.4739999999999,5.8501000000000065,20.23,1.0,1.0
CC1CN(CC(C)O1)N=O,water,298,-0.0655,mol/L,144.17399999999998,0.7769999999999999,41.9,0.0,3.0
COC(=O)c1cccc(c1)C(=O)OC,water,298,-2.8258,mol/L,194.18599999999998,1.2597999999999998,52.60000000000001,0.0,4.0
Cc1ccc(C)c(C)n1,water,298,-0.5893,mol/L,121.183,2.00686,12.89,0.0,1.0
Oc1ccc2CCCc2c1,water,298,-1.3285,mol/L,134.17800000000003,1.8809,20.23,1.0,1.0
ClC\C=C/CCl,water,298,-2.3333,mol/L,124.998,2.0202,0.0,0.0,0.0
CC[C@@H]1CCCCN1,water,298,-0.3463,mol/L,113.20400000000001,1.5385,12.03,1.0,1.0
CC(C)C1CCC(C)CC1O,water,298,-2.5706,mol/L,156.269,2.439500000000001,20.23,1.0,1.0
O=C1CCCCC1C2=CCCCC2,water,298,-2.774,mol/L,178.27499999999995,3.246100000000002,17.07,0.0,1.0
CC(=O)Oc1ccc(Br)cc1C(O)=O,water,298,-2.5895,mol/L,259.055,2.0726,63.6,1.0,3.0
CC(O)c1ccccc1,water,298,-0.9205,mol/L,122.16699999999996,1.7399,20.23,1.0,1.0
CCN(CC)C(=O)CCC(O)=O,water,298,-0.7937,mol/L,173.212,0.7195999999999998,57.61000000000001,1.0,2.0
CNC(=O)Oc1cccc2CC(C)(C)Oc12,water,298,-2.8398,mol/L,221.25599999999994,2.1183,47.56,1.0,3.0
COc1ccc(NC(N)=O)cc1,water,298,-1.5917,mol/L,166.18,1.1857999999999997,64.35,2.0,2.0
COc1ccc(O)c(c1)[N+]([O-])=O,water,298,-2.8409,mol/L,169.13599999999997,1.3089999999999997,72.6,1.0,4.0
CCCOCC(C)O,water,298,0.9275,mol/L,118.17599999999997,0.7938000000000001,29.46,1.0,2.0
C/C=C/C(C)O,water,298,0.0152,mol/L,86.134,0.9433,20.23,1.0,1.0
Cc1cc(Cl)ccc1O,water,298,-1.552,mol/L,142.585,2.3540200000000007,20.23,1.0,1.0
Cc1cc(Cl)cc(Cl)c1O,water,298,-2.0439,mol/L,177.03,3.00742,20.23,1.0,1.0
NC(=O)c1cccc(c1)[S](N)(=O)=O,water,298,-2.1554,mol/L,200.21899999999994,-0.5670999999999999,103.25,2.0,3.0
OC(=O)C=C(Br)Br,water,298,-0.8358,mol/L,229.85500000000002,1.7022000000000002,37.3,1.0,1.0
CCCN(CCC)c1c(cc(cc1[N+]([O-])=O)C(F)(F)F)[N+]([O-])=O,water,298,-6.2606,mol/L,335.28200000000004,4.148200000000004,89.51999999999998,0.0,5.0
CC(NC(N)=O)NC(N)=O,water,298,-0.5916,mol/L,146.14999999999998,-1.3309999999999995,110.23999999999998,4.0,2.0
NC(=O)NN=C1CCCCC1,water,298,-1.4127,mol/L,155.201,0.9748,67.48,2.0,2.0
OC(=O)CCC(=O)c1ccc2ccccc2c1,water,298,-3.8533,mol/L,228.247,2.8873000000000015,54.37,1.0,2.0
CN(C)NC(=O)CCC(O)=O,water,298,-0.2046,mol/L,160.173,-0.556,69.64000000000001,2.0,3.0
OCC(CO[N+]([O-])=O)(CO[N+]([O-])=O)CO[N+]([O-])=O,water,298,-1.585,mol/L,271.138,-1.4099999999999995,177.33999999999997,1.0,10.0
CCNc1nc(NC(C)C)nc(OC)n1,water,298,-2.0696,mol/L,211.26899999999998,1.1322999999999996,71.96000000000001,2.0,6.0
C=C\C=C/C#N,water,298,-0.7221,mol/L,79.102,1.25218,23.79,0.0,1.0
[O-][N+](=O)c1ccc2NC(=O)CN=C(c3ccccc3Cl)c2c1,water,298,-3.4993,mol/L,315.716,3.037700000000001,84.60000000000001,1.0,4.0
CN(C)C1CSSC1,water,298,-1.873,mol/L,149.284,1.3115999999999999,3.24,0.0,3.0
CCOC(=O)CC(S[P](=O)(OC)OC)C(=O)OCC,water,298,-1.6223,mol/L,314.29600000000005,2.0054,88.13000000000001,0.0,8.0
CCCCCCCS,water,298,-4.1549,mol/L,132.27200000000002,2.886600000000002,0.0,1.0,1.0
CNC(=O)O\N=C\C(C)(C)[S](C)=O,water,298,-0.8673,mol/L,206.26699999999997,0.48529999999999984,67.75999999999999,1.0,4.0
CNC(=O)O\N=C\C(C)(C)[S](C)(=O)=O,water,298,-1.3469,mol/L,222.26599999999996,0.15139999999999998,84.82999999999998,1.0,5.0
FC(F)(Cl)CCl,water,298,-2.2007,mol/L,134.94,2.0568,0.0,0.0,0.0
CCCCCCCCCC(C)O,water,298,-2.9418,mol/L,172.312,3.5079000000000025,20.23,1.0,1.0
CC(C)CCCCCO,water,298,-2.3038,mol/L,130.23100000000002,2.1951000000000005,20.23,1.0,1.0
Cc1cnc2c(ccc3c(C)c(C)cnc23)c1C,water,298,-5.1939,mol/L,236.31799999999996,4.016680000000003,25.78,0.0,2.0
CN(C)CC\C=C1/c2ccccc2COc3ccccc13,water,298,-3.9469,mol/L,279.383,3.9624000000000033,12.47,0.0,2.0
CCC1CCCCC1,water,298,-4.2507,mol/L,112.21600000000001,2.976700000000002,0.0,0.0,0.0
CC1(C)C2CC3OC3(C)C1C2,water,298,-2.5937,mol/L,152.237,2.2099,12.53,0.0,1.0
CC1(C)OC(=O)c2ccccc12,water,298,-1.8684,mol/L,162.188,2.0921000000000003,26.3,0.0,2.0
O=C1C=CC(C=C1)=NNc2ccccc2,water,298,-3.3429,mol/L,198.22500000000002,2.1495999999999995,41.46,1.0,3.0
Oc1c(I)cc(cc1I)C#N,water,298,-3.8703,mol/L,370.915,2.4730800000000004,44.019999999999996,1.0,2.0
Oc1c(Br)cc(cc1Br)C#N,water,298,-3.3284,mol/L,276.915,2.78888,44.019999999999996,1.0,2.0
CCCCCCCC(=O)Oc1c(Br)cc(cc1Br)C#N,water,298,-6.7023,mol/L,403.11400000000003,5.349180000000004,50.09,0.0,3.0
ClC1=C(Cl)C(=O)N(N=C1)c2ccccc2,water,298,-3.3822,mol/L,241.07700000000003,2.5393,34.89,0.0,3.0
NC1=C(Cl)C(=O)N(N=C1)c2ccccc2,water,298,-2.7436,mol/L,221.64700000000002,1.4680999999999997,60.910000000000004,1.0,4.0
OC(=O)c1nc(Cl)ccc1Cl,water,298,-1.3884,mol/L,192.00100000000003,2.0866,50.19,1.0,2.0
Cc1cc2c3ccccc3ccc2c4ccccc14,water,298,-6.5715,mol/L,242.321,5.454620000000004,0.0,0.0,0.0
CC(C)O[N+]([O-])=O,water,298,-1.4593,mol/L,105.09299999999999,0.6031,52.37,0.0,3.0
CC(F)(Cl)Cl,water,298,-2.4448,mol/L,116.95,2.1071999999999997,0.0,0.0,0.0
COc1ccc2Nc3cc(Cl)ccc3Sc2c1,water,298,-4.9787,mol/L,263.74899999999997,4.556800000000002,21.259999999999998,1.0,3.0
CC(C)c1ccc2c(CC[C@H]3[C@@](C)(CCC[C@]23C)C(O)=O)c1,water,298,-4.6582,mol/L,300.44199999999995,4.904900000000004,37.3,1.0,1.0
C1NNCN2CNNCN12,water,298,-0.0128,mol/L,144.182,-2.448999999999998,54.6,4.0,6.0
O=C(Nc1ccccc1)c2cccnc2,water,298,-3.093,mol/L,198.225,2.3339,41.99,1.0,2.0
Nc1ccc2snnc2c1,water,298,-1.3045,mol/L,151.19400000000002,1.2735,51.8,1.0,4.0
[NH4+].[S-]C#N,water,298,0.9178,mol/L,76.12400000000001,0.3905799999999999,60.29,1.0,2.0
OCc1ccc(Cl)cc1Cl,water,298,-2.248,mol/L,177.03,2.4857000000000005,20.23,1.0,1.0
[O-][N+](=O)CCl,water,298,-0.281,mol/L,95.48500000000001,0.4593999999999999,43.14,0.0,2.0
C\C(NO)=C/N=O,water,298,-0.3462,mol/L,102.093,0.5929,61.69,2.0,4.0
OCc1ccc(Cl)c(Cl)c1,water,298,-2.0439,mol/L,177.03,2.4857000000000005,20.23,1.0,1.0
CCCCO[P+](=O)OCCCC,water,298,-1.4249,mol/L,193.20299999999995,3.2772000000000023,35.53,0.0,3.0
Clc1cccc2c(Cl)cccc12,water,298,-5.716,mol/L,197.064,4.146600000000001,0.0,0.0,0.0
Clc1ccc(Cl)c2ccccc12,water,298,-5.3576,mol/L,197.06400000000002,4.146600000000002,0.0,0.0,0.0
CCN(CC)C(=O)CSc1ccc(Cl)nn1,water,298,-1.7156,mol/L,259.762,2.0904999999999996,46.09,0.0,4.0
[O-][N+](=O)c1ccc(Oc2ccc(Cl)cc2Cl)cc1,water,298,-5.4535,mol/L,284.098,4.693900000000002,52.370000000000005,0.0,3.0
[O-][N+](=O)c1ccc(Oc2c(Cl)cc(Cl)cc2Cl)cc1,water,298,-5.6201,mol/L,318.543,5.3473000000000015,52.370000000000005,0.0,3.0
CCCC(O)C(C)CC,water,298,-1.8406,mol/L,130.23099999999997,2.1935000000000002,20.23,1.0,1.0
Fc1ccc(cc1)C(CCCN2CCC3(CC2)N(CNC3=O)c4ccccc4)c5ccc(F)cc5,water,298,-4.6772,mol/L,475.5830000000001,5.305400000000005,35.58,1.0,3.0
OC(=O)CCCCCCCCCC(O)=O,water,298,-1.6274,mol/L,216.27699999999996,2.6665,74.6,2.0,2.0
COC(=O)c1c(Cl)c(Cl)c(c(Cl)c1Cl)C(=O)OC,water,298,-5.8221,mol/L,331.9660000000001,3.873400000000001,52.60000000000001,0.0,4.0
CCCCN(CC)c1c(cc(cc1[N+]([O-])=O)C(F)(F)F)[N+]([O-])=O,water,298,-6.5254,mol/L,335.28200000000004,4.148200000000004,89.51999999999998,0.0,5.0
CC(O)COCc1c(Cl)ccc(Cl)c1Cl,water,298,-3.5673,mol/L,269.555,3.544200000000002,29.46,1.0,2.0
[H+].[Cl-].CNC1(CCCCC1=O)c2ccccc2Cl,water,298,-0.137,mol/L,274.19100000000003,0.014300000000000646,29.1,1.0,2.0
Cc1cc(O)c(Cc2ccccc2)c(C)c1Cl,water,298,-4.3009,mol/L,246.737,4.253240000000003,20.23,1.0,1.0
OCCNC(=O)C(=O)NCCO,water,298,-0.1124,mol/L,176.17199999999997,-2.7965999999999984,98.66000000000001,4.0,4.0
Nc1ncnc2n(cnc12)[C@]3(CO)O[C@H](CO)[C@@H](O)[C@H]3O,water,298,-1.5701,mol/L,297.27099999999996,-2.8334999999999986,159.77,5.0,10.0
Cc1ccccc1OCC(O)=O,water,298,-2.4424,mol/L,166.176,1.45842,46.53,1.0,2.0
OC(=O)COc1ccccc1[N+]([O-])=O,water,298,-2.016,mol/L,197.146,1.0582,89.66999999999999,1.0,4.0
CC(C)(C)[S](=O)(=O)C(C)(C)C,water,298,-1.2177,mol/L,178.29699999999997,1.9982000000000002,34.14,0.0,2.0
ClC(Cl)=C(Cl)C(Cl)(Cl)Cl,water,298,-4.1651,mol/L,248.751,4.2421,0.0,0.0,0.0
Brc1oc(C=O)cc1,water,298,-1.544,mol/L,174.981,1.8545999999999998,30.21,0.0,2.0
CCN(CC)c1nc(Cl)nc(NC(C)C)n1,water,298,-3.7849,mol/L,243.74200000000002,2.1914999999999996,53.940000000000005,1.0,5.0
Cc1oc(cc1)C(O)=O,water,298,-0.8243,mol/L,126.11099999999996,1.28622,50.440000000000005,1.0,2.0
COCc1oc(C=O)cc1,water,298,-0.4992,mol/L,140.13799999999998,1.2385,39.44,0.0,3.0
COc1c(Cl)ccc(Cl)c1C(O)=O,water,298,-1.4249,mol/L,221.039,2.7002000000000006,46.53,1.0,2.0
Nc1c(Cl)c(Cl)nc(C(O)=O)c1Cl,water,298,-2.7494,mol/L,241.46099999999998,2.3222,76.21000000000001,2.0,3.0
CCCN(CCC)c1c(cc(C)cc1[N+]([O-])=O)[N+]([O-])=O,water,298,-2.9663,mol/L,281.312,3.437820000000002,89.51999999999998,0.0,5.0
CNC(=O)Oc1c(cc(C)cc1C(C)(C)C)C(C)(C)C,water,298,-4.598,mol/L,277.408,4.308220000000004,38.33,1.0,2.0
Oc1ccc2Nc3ccccc3Sc2c1,water,298,-2.5748,mol/L,215.27700000000002,3.6004000000000005,32.26,2.0,3.0
COC(=O)COc1ccc(Cl)cc1Cl,water,298,-2.9596,mol/L,235.066,2.5452000000000004,35.53,0.0,3.0
CCOC(=O)COc1cc(Cl)c(Cl)cc1Cl,water,298,-4.8493,mol/L,283.538,3.588700000000002,35.53,0.0,3.0
CCCCCCCCOC(=O)COc1ccc(Cl)cc1Cl,water,298,-7.0217,mol/L,333.255,5.2759000000000045,35.53,0.0,3.0
CCCOC(=O)COc1ccc(Cl)cc1Cl,water,298,-4.2502,mol/L,263.12,3.325400000000002,35.53,0.0,3.0
COc1ccc(CCC(O)=O)cc1,water,298,-2.2144,mol/L,180.203,1.7124,46.53,1.0,2.0
CCCCOCCOC(=O)COc1ccc(Cl)cc1Cl,water,298,-4.4276,mol/L,321.20000000000005,3.7321000000000026,44.760000000000005,0.0,4.0
CCCSC(=O)N(CCC)CCC,water,298,-3.354,mol/L,203.35099999999994,3.3716000000000026,20.310000000000002,0.0,2.0
Clc1cccc(n1)C(Cl)(Cl)Cl,water,298,-3.5061,mol/L,230.909,3.5617,12.89,0.0,1.0
CNC(=O)Nc1sc2ccccc2n1,water,298,-4.2373,mol/L,207.258,2.0476,54.02,2.0,3.0
[O-][N+](=O)C(Cl)([N+]([O-])=O)[N+]([O-])=O,water,298,-1.9259,mol/L,185.479,-0.33340000000000014,129.42000000000002,0.0,6.0
CC(=C)C1CCC(C)(O)C(O)C1,water,298,-0.2311,mol/L,170.252,1.4745,40.46,2.0,2.0
CCCS[S](=O)CCC,water,298,-0.9199,mol/L,166.31099999999995,2.2033000000000005,17.07,0.0,2.0
COc1c(cccc1C(O)=O)C(O)=O,water,298,-2.2926,mol/L,196.15799999999996,1.0916,83.83000000000001,2.0,3.0
CCC(=O)Oc1ccc(cc1)[N+]([O-])=O,water,298,-3.8925,mol/L,195.17399999999998,1.9102,69.44,0.0,4.0
CCCCC(=O)Oc1ccc(cc1)[N+]([O-])=O,water,298,-4.3945,mol/L,223.22799999999998,2.6904000000000012,69.44,0.0,4.0
CCCCOC(=O)c1ccc(cc1)C(=O)OCCCC,water,298,-5.4669,mol/L,278.348,3.600400000000003,52.60000000000001,0.0,4.0
CC(C)C(NC(=O)CN)C(O)=O,water,298,0.4579,mol/L,174.2,-0.829499999999999,92.42000000000002,3.0,3.0
OCCNC(=O)CCCCC(=O)NCCO,water,298,0.4121,mol/L,232.27999999999997,-1.2361999999999986,98.66000000000001,4.0,4.0
CNC(=O)OCc1ccc(Cl)c(Cl)c1,water,298,-3.1389,mol/L,234.082,2.849400000000001,38.33,1.0,2.0
CC(OC(=O)Nc1cccc(Cl)c1)C#C,water,298,-2.6172,mol/L,223.659,2.9102000000000006,38.33,1.0,2.0
NC(=O)Nc1ccc(Br)cc1,water,298,-1.6336,mol/L,215.04999999999998,1.9397000000000002,55.120000000000005,2.0,1.0
CCc1ccccc1Br,water,298,-3.6702,mol/L,185.06399999999996,3.0115000000000016,0.0,0.0,0.0
CN(C)C(=O)Nc1ccc(Oc2ccc(Cl)cc2)cc1,water,298,-4.8953,mol/L,290.75,4.225800000000003,41.57000000000001,1.0,2.0
CC1CCCCC1NC(=O)Nc2ccccc2,water,298,-4.1108,mol/L,232.32700000000003,3.386800000000001,41.13,2.0,1.0
COc1cccc(Cl)c1Cl,water,298,-3.309,mol/L,177.02999999999997,3.0020000000000016,9.23,0.0,1.0
COc1c(Cl)cccc1Cl,water,298,-3.1019,mol/L,177.03,3.0020000000000007,9.23,0.0,1.0
NC(=O)C=Cc1ccccc1[N+]([O-])=O,water,298,-1.2837,mol/L,192.17399999999998,1.0933000000000002,86.22999999999999,1.0,3.0
Cc1ncnc2nc[nH]c12,water,298,0.1735,mol/L,134.142,0.6613199999999999,54.46,1.0,3.0
CCSC(=O)N(CC(C)C)CC(C)C,water,298,-3.684,mol/L,217.378,3.4735000000000023,20.310000000000002,0.0,2.0
O=C1CNC(=S)N1c2ccccc2,water,298,-3.2425,mol/L,192.24300000000002,0.9077000000000003,32.34,1.0,2.0
CCCCCCCCCCN,water,298,-2.4564,mol/L,157.301,3.0858000000000008,26.02,1.0,1.0
CCOC(=O)CCc1ccccc1,water,298,-2.9086,mol/L,178.23100000000002,2.1822999999999997,26.3,0.0,2.0
NC1=C(F)C=NC(=O)N1,water,298,-0.9348,mol/L,129.094,-0.5088000000000001,71.77,2.0,3.0
CNC(=O)Oc1ccc(N(C)C)c(C)c1,water,298,-2.3572,mol/L,208.26099999999997,1.77922,41.57,1.0,3.0
CNC(=O)Oc1cc(C)c(SC)c(C)c1,water,298,-3.9214,mol/L,225.313,2.743540000000001,38.33,1.0,3.0
CCCC1CCCC1,water,298,-4.7404,mol/L,112.21600000000001,2.976700000000002,0.0,0.0,0.0
CC(O)C(N)=O,water,298,0.9435,mol/L,89.09400000000001,-1.1475000000000002,63.32,2.0,2.0
CCC(C)(C)c1ccccc1,water,298,-4.1498,mol/L,148.24899999999997,3.374200000000002,0.0,0.0,0.0
CCOC(=O)CCCCCC(=O)OCC,water,298,-2.0408,mol/L,216.27699999999996,2.0631,52.60000000000001,0.0,4.0
CCOC(=O)CCCCCCC(=O)OCC,water,298,-2.5304,mol/L,230.30399999999995,2.4532000000000007,52.60000000000001,0.0,4.0
Clc1ccc2ccccc2c1Cl,water,298,-6.1611,mol/L,197.06399999999996,4.146600000000001,0.0,0.0,0.0
Clc1cccc2cccc(Cl)c12,water,298,-5.7963,mol/L,197.06399999999996,4.146600000000001,0.0,0.0,0.0
Clc1cc2ccccc2cc1Cl,water,298,-6.3566,mol/L,197.06399999999996,4.146600000000001,0.0,0.0,0.0
OC/1=CC(=O)C=CC1=N/Nc2ccccc2,water,298,-3.0299,mol/L,214.22400000000002,2.0353,61.69,2.0,4.0
COC(C)C(N)C(O)=O,water,298,0.4853,mol/L,133.147,-0.5668000000000002,72.55000000000001,2.0,3.0
COC(C)C(N)C(O)=O,water,298,0.4979,mol/L,133.147,-0.5668000000000002,72.55000000000001,2.0,3.0
CC(C)CC(c1ccc(O)cc1)c2ccc(O)cc2,water,298,-3.3674,mol/L,256.34499999999997,4.275800000000004,40.46,2.0,2.0
C[C@@H](C[C@@H](C)C([O-])=O)C([O-])=O,water,298,-0.4564,mol/L,158.153,-1.8514999999999993,80.25999999999999,0.0,4.0
N[S](=O)(=O)c1cc2c(CN(C3CCCCC3)C2=O)cc1Cl,water,298,-4.3128,mol/L,328.8209999999999,2.2759,80.47,1.0,3.0
Brc1cccc(c1)N=C=S,water,298,-4.0851,mol/L,214.087,3.1834000000000007,12.36,0.0,2.0
C[C@@H]1C[C@H]2[C@@H]3C[C@H](F)C4=CC(=O)C=C[C@]4(C)[C@@]3(F)[C@@H](O)C[C@]2(C)[C@@]1(O)C(=O)CO,water,298,-5.6133,mol/L,410.4570000000002,1.8436999999999997,94.83,3.0,5.0
Oc1ccc(C2CCCCC2)c(O)c1,water,298,-2.5763,mol/L,192.25799999999998,3.145500000000001,40.46,2.0,2.0
OCC1C(CO)C2(Cl)C(=C(Cl)C1(Cl)C2(Cl)Cl)Cl,water,298,-3.0802,mol/L,360.8789999999999,3.0489,40.46,2.0,2.0
OC(=O)c1ccccc1C(=O)c2ccc(Br)cc2,water,298,-3.0074,mol/L,305.12699999999995,3.378300000000001,54.37,1.0,2.0
CCNC1=NC(=O)N=C(NC(C)C)N1,water,298,-4.5241,mol/L,197.24200000000002,0.4169999999999994,82.69999999999999,3.0,5.0
CN(C)C(=O)NC1CCCCCCC1,water,298,-2.2182,mol/L,198.30999999999992,2.3705,32.34,1.0,1.0
[Na+].C[As](O)([O-])=O,water,298,0.554,mol/L,161.952,-4.657799999999999,60.36,1.0,2.0
O=C1NC2=C(CCC2)C(=O)N1C3CCCCC3,water,298,-4.5916,mol/L,234.29899999999995,1.5305,54.86,1.0,3.0
CC(=C)C(=O)Nc1ccc(Cl)c(Cl)c1,water,298,-4.4325,mol/L,230.094,3.508000000000002,29.1,1.0,1.0
CCC(C)OC(=O)Nc1cccc(Cl)c1,water,298,-3.1727,mol/L,227.691,3.687000000000002,38.33,1.0,2.0
CC(C)COc1ccc2ccccc2c1,water,298,-5.2117,mol/L,200.281,3.8746000000000027,9.23,0.0,1.0
CCCCN1CCCCC1C(=O)Nc2c(C)cccc2C,water,298,-2.0798,mol/L,288.43500000000006,3.8965400000000026,32.34,1.0,2.0
Clc1ccc2ccc(Cl)cc2c1,water,298,-5.9217,mol/L,197.064,4.146600000000001,0.0,0.0,0.0
CCOC(=O)c1[nH]c(C)cc1C,water,298,-2.6212,mol/L,167.208,1.80824,42.09,1.0,2.0
COc1ccc(cc1C(O)=O)C(O)=O,water,298,-3.1165,mol/L,196.158,1.0916,83.83000000000001,2.0,3.0
C[C@H]1CCCC[C@H]1C,water,298,-4.2719,mol/L,112.216,2.832600000000001,0.0,0.0,0.0
C[C@@H](Cl)[C@@H](C)Cl,water,298,-2.3541,mol/L,127.014,2.2410000000000005,0.0,0.0,0.0
OC(=O)c1cccc2cccc(c12)[N+]([O-])=O,water,298,-2.7501,mol/L,217.17999999999998,2.446200000000001,80.44,1.0,3.0
CCCCC(C)CCC,water,298,-6.0474,mol/L,128.259,3.6128000000000027,0.0,0.0,0.0
CC(C)[C@@H]1CC[C@@H](C)C[C@H]1O,water,298,-2.5037,mol/L,156.269,2.439500000000001,20.23,1.0,1.0
COc1cccc2ccccc12,water,298,-4.1992,mol/L,158.2,2.8484000000000007,9.23,0.0,1.0
CC1(C)[C@@H]2CC[C@@](C)(C2)[C@@H]1O,water,298,-2.2702,mol/L,154.25300000000001,2.1935000000000007,20.23,1.0,1.0
CCC(CC)([S](=O)(=O)CC)[S](=O)(=O)CC,water,298,-2.0625,mol/L,256.38899999999995,1.3721,68.28,0.0,4.0
Clc1ccc(Sc2cc(Cl)c(Cl)cc2Cl)cc1,water,298,-7.0335,mol/L,324.05899999999997,6.451400000000001,0.0,0.0,1.0
ClC1=C(Cl)C(Cl)(C(=C1Cl)Cl)C2(Cl)C(=C(Cl)C(=C2Cl)Cl)Cl,water,298,-7.2784,mol/L,474.64,7.725599999999999,0.0,0.0,0.0
O\N=C/1CCCC=C1,water,298,-0.9667,mol/L,111.14399999999999,1.5567,32.59,1.0,2.0
Clc1c(Cl)c(Cl)c2c(Cl)c(Cl)c(Cl)c(Cl)c2c1Cl,water,298,-9.703,mol/L,403.73400000000004,8.067,0.0,0.0,0.0
Nc1cccc(c1)C#N,water,298,-1.1693,mol/L,118.139,1.1404800000000002,49.81,1.0,2.0
CCCCCCCCC#N,water,298,-3.2987,mol/L,139.242,3.260580000000002,23.79,0.0,1.0
Nc1cccc2c(N)cccc12,water,298,-2.6194,mol/L,158.204,2.0042,52.04,2.0,2.0
S=C=NCCc1ccccc1,water,298,-3.1714,mol/L,163.245,2.3319,12.36,0.0,2.0
[O-]C(=O)C(Cl)=C(Cl)Cl,water,298,-0.4659,mol/L,174.39000000000001,0.6217999999999999,40.129999999999995,0.0,2.0
FC(F)(F)c1[nH]c2cncnc2n1,water,298,-0.4505,mol/L,188.112,1.3716999999999997,54.46,1.0,3.0
OC(=O)CCCCc1ccccc1,water,298,-2.4657,mol/L,178.23100000000002,2.484000000000001,37.3,1.0,1.0
Cn1cnc2nc(Cl)nc(Cl)c12,water,298,-1.1522,mol/L,203.032,1.6700999999999997,43.6,0.0,4.0
CO[P](=O)(OC)OC(=C\Cl)/c1ccc(Cl)cc1Cl,water,298,-3.4066,mol/L,331.519,4.948100000000002,44.760000000000005,0.0,4.0
CCO[P](=S)(OCC)SCC(=O)NC(C)C,water,298,-2.0575,mol/L,285.37100000000004,2.5417000000000005,47.56,1.0,5.0
CNC(=O)CCSCCS[P](=O)(OC)OC,water,298,0.5416,mol/L,287.343,1.9898,64.63000000000001,1.0,6.0
OC(=O)c1c(O)ccc2ccccc12,water,298,-3.1284,mol/L,188.182,2.2436,57.53,2.0,2.0