Solute,Solvent,Temperature_K,Solubility,Units,MW,LogP,TPSA,HBD,HBA
CCCCOCCOCCOC(=O)CCCCC(=O)OCCOCCOCCCC,water,298,-2.882184886,mol/L,434.57000000000033,3.299800000000002,89.52000000000001,0.0,8.0
CC(C)COC(=O)C(C)=C,water,298,-2.397018633,mol/L,142.19799999999995,1.7617,26.3,0.0,2.0
N#Cc1ccccc1C#N,water,298,-2.357928068,mol/L,128.13399999999996,1.4299600000000001,47.58,0.0,2.0
N#Cc1ccccc1C#N,water,298,-2.359476357,mol/L,128.13399999999996,1.4299600000000001,47.58,0.0,2.0
COc1ccc(C)cc1,water,298,-2.339542101,mol/L,122.16699999999997,2.0036199999999997,9.23,0.0,1.0
C(CNc1cccc2ccccc12)CN3CCOCC3,water,298,-2.702803349,mol/L,270.376,2.974000000000001,24.5,1.0,3.0
Cc1cccc(c1)[N+]([O-])=O,water,298,-2.409616555,mol/L,137.138,1.90322,43.14,0.0,2.0
Oc1ccccc1c2ccccc2,water,298,-2.506711754,mol/L,170.211,3.0592000000000015,20.23,1.0,1.0
CCC(C)(C)c1ccccc1O,water,298,-2.49122422,mol/L,164.24799999999996,3.079800000000002,20.23,1.0,1.0
CO[Si](CCCCCC[Si](OC)(OC)OC)(OC)OC,water,298,-2.792947984,mol/L,326.53800000000007,2.303,55.38000000000001,0.0,6.0
Cc1ccccc1,water,298,-2.249285564,mol/L,92.14099999999999,1.99502,0.0,0.0,0.0
C[C@@H]1[C@@H](CN)C[C@H]2C[C@@H]1C2(C)C,water,298,-2.515915381,mol/L,167.296,2.2634000000000007,26.02,1.0,1.0
[O-][N+](=O)c1ccccc1Cl,water,298,-2.49500441,mol/L,157.55599999999998,2.2482000000000006,43.14,0.0,2.0
[Pb++].[O-]c1c(cc(c([O-])c1[N+]([O-])=O)[N+]([O-])=O)[N+]([O-])=O,water,298,-2.954519405,mol/L,450.2870000000002,-0.8224000000000005,175.54,0.0,8.0
CC(CCC=C(C)C)C=O,water,298,-2.447858542,mol/L,140.22599999999997,2.567800000000001,17.07,0.0,1.0
OC(=O)CN(CCN(CC(O)=O)CC(O)=O)CC(O)=O,water,298,-2.766775599,mol/L,292.244,-2.0711999999999957,155.68,4.0,6.0
COc1ccc2nccc([C@@H](O)[C@@H]3CC4CCN3C[C@@H]4C=C)c2c1,water,298,-2.81214297,mol/L,324.4240000000001,3.1732000000000014,45.59,1.0,4.0
COc1ccc2nccc([C@H](O)[C@H]3C[C@@H]4CCN3C[C@@H]4C=C)c2c1,water,298,-2.81214297,mol/L,324.4240000000001,3.1732000000000014,45.59,1.0,4.0
C[C@@H]1O[C@@H](O[C@@H]2[C@@H](O)[C@H](O)[C@@H](CO)O[C@H]2Oc3cc(O)c4C(=O)C[C@H](Oc4c3)c5ccc(O)cc5)[C@H](O)[C@H](O)[C@H]1O,water,298,-3.064861396,mol/L,580.5390000000004,-1.1652000000000018,225.05999999999997,8.0,14.0
CCCCCCCCCCCC(=O)N(C)CC(O)=O,water,298,-2.734641439,mol/L,271.40099999999995,3.4503000000000013,57.61000000000001,1.0,2.0
CCOC(=O)c1ccccc1,water,298,-2.47763342,mol/L,150.177,1.8633,26.3,0.0,2.0
CC(C)COC(=O)[C@H](C)Cl,water,298,-2.51754425,mol/L,164.63199999999998,1.8129,26.3,0.0,2.0
ClC1=C(Cl)C2(Cl)C3C(C(=O)OC3=O)C1(Cl)C2(Cl)Cl,water,298,-2.871074316,mol/L,370.83000000000004,3.1477000000000004,43.370000000000005,0.0,3.0
Cc1cccc(c1)[N+]([O-])=O,water,298,-2.446076319,mol/L,137.138,1.90322,43.14,0.0,2.0
C/C(C=O)=C/c1ccccc1,water,298,-2.474718615,mol/L,146.189,2.2888,17.07,0.0,1.0
CC(Cl)(Cl)Cl,water,298,-2.44393087,mol/L,133.405,2.376500000000001,0.0,0.0,0.0
CC(C)CCCCCC(=O)NCCCCCC(O)=O,water,298,-2.752370206,mol/L,271.40099999999995,3.3541000000000016,66.4,2.0,2.0
CC(C)=CC1CC(=C)CCO1,water,298,-2.510422359,mol/L,152.237,2.687800000000001,9.23,0.0,1.0
Clc1ccccc1,water,298,-2.379282368,mol/L,112.55899999999997,2.34,0.0,0.0,0.0
Brc1ccccc1,water,298,-2.526610433,mol/L,157.01,2.4491000000000005,0.0,0.0,0.0
CCCC(C)C(=O)OCC,water,298,-2.489690542,mol/L,144.21399999999997,1.9857,26.3,0.0,2.0
CC(=C)C(=O)OC(C)(C)C,water,298,-2.486375508,mol/L,142.19799999999998,1.9042000000000001,26.3,0.0,2.0
CCCCOC=C,water,298,-2.33794082,mol/L,100.16099999999999,1.9465999999999999,9.23,0.0,1.0
[O-][N+](=O)c1ccc(Cl)cc1,water,298,-2.541336745,mol/L,157.55599999999998,2.2481999999999998,43.14,0.0,2.0
Nc1ccc(Cl)cc1Cl,water,298,-2.556353434,mol/L,162.019,2.5756000000000006,26.02,1.0,1.0
CCCCC(CC)C=O,water,298,-2.454726323,mol/L,128.21499999999997,2.401700000000001,17.07,0.0,1.0
CCCCN[S](=O)(=O)c1ccccc1,water,298,-2.675782414,mol/L,213.302,1.7650000000000003,46.17,1.0,2.0
CC1(C)CCCC(C)(O1)C=C,water,298,-2.535987278,mol/L,154.253,2.9102000000000015,9.23,0.0,1.0
Brc1ccccc1,water,298,-2.547567303,mol/L,157.01,2.4491000000000005,0.0,0.0,0.0
CC1=Nc2ccc(cc2C1(C)C)C(O)=O,water,298,-2.662589054,mol/L,203.24099999999996,2.7684000000000006,49.660000000000004,1.0,2.0
CC1CCCCC1OC(C)=O,water,298,-2.550297857,mol/L,156.225,2.1282000000000005,26.3,0.0,2.0
CC(C)COC(=O)[C@H](C)Cl,water,298,-2.573061578,mol/L,164.63199999999998,1.8129,26.3,0.0,2.0
Cc1ccccc1[N+]([O-])=O,water,298,-2.496676375,mol/L,137.138,1.9032200000000001,43.14,0.0,2.0
[O-][N+](=O)c1ccccc1Cl,water,298,-2.563966491,mol/L,157.55599999999998,2.2482000000000006,43.14,0.0,2.0
CCCCC(CC)COC(=O)C(C)O,water,298,-2.67352571,mol/L,202.29399999999998,2.1268000000000007,46.53,1.0,3.0
Brc1ccccc1,water,298,-2.568561457,mol/L,157.01,2.4491000000000005,0.0,0.0,0.0
CC(C)=CCC\C(C)=C\C=O,water,298,-2.559270927,mol/L,152.237,2.878000000000001,17.07,0.0,1.0
[F-].[F-].[F-].[F-].[F-].[F-].[Na+].[Na+].[Na+].[Al+3],water,298,-2.698845903,mol/L,209.94000000000003,-27.344799999999996,0.0,0.0,0.0
Cc1cccc(c1)[N+]([O-])=O,water,298,-2.514943789,mol/L,137.138,1.90322,43.14,0.0,2.0
Cc1ccc(cc1)[N+]([O-])=O,water,298,-2.514943789,mol/L,137.138,1.90322,43.14,0.0,2.0
COc1cc(CC=C)ccc1OC(C)=O,water,298,-2.701591149,mol/L,206.24099999999999,2.349,35.53,0.0,3.0
CC=C(C)C,water,298,-2.233150945,mol/L,70.13499999999999,1.9725,0.0,0.0,0.0
OC[C@@H]1CO[C@](Cn2cncn2)(O1)c3ccc(Cl)cc3Cl,water,298,-2.905955068,mol/L,330.17100000000005,1.8455999999999995,69.4,1.0,6.0
CCCCOC(=O)C(C)=C,water,298,-2.544367455,mol/L,142.19799999999995,1.9058,26.3,0.0,2.0
COc1ccc(CCC(=O)c2c(O)cc(O[C@@H]3O[C@H](CO)[C@@H](O)[C@H](O)[C@H]3O[C@@H]4O[C@@H](C)[C@H](O)[C@@H](O)[C@H]4O)cc2O)cc1O,water,298,-3.185103531,mol/L,612.5810000000002,-1.3420000000000003,245.28999999999996,9.0,15.0
CCCCC(CC)C=O,water,298,-2.505878845,mol/L,128.21499999999997,2.401700000000001,17.07,0.0,1.0
CC(CCO)CC(C)(C)C,water,298,-2.557079916,mol/L,144.25799999999998,2.4411000000000005,20.23,1.0,1.0
Oc1cc(Cl)ccc1[N+]([O-])=O,water,298,-2.637377139,mol/L,173.55499999999998,1.9538,63.37,1.0,3.0
Clc1ccccc1,water,298,-2.449320235,mol/L,112.55899999999997,2.34,0.0,0.0,0.0
CCOC(=O)N1C(=O)c2ccccc2C1=O,water,298,-2.738772633,mol/L,219.196,1.4391,63.68,0.0,4.0
CC(C)[C@@H]1CC[C@@H](C)C[C@H]1O,water,298,-2.595082326,mol/L,156.269,2.439500000000001,20.23,1.0,1.0
CC(C)[C@@H]1CC[C@@H](C)C[C@H]1O,water,298,-2.600586766,mol/L,156.269,2.439500000000001,20.23,1.0,1.0
CCCCC(CC)C=O,water,298,-2.51687423,mol/L,128.21499999999997,2.401700000000001,17.07,0.0,1.0
CC(CCO)CCc1ccccc1,water,298,-2.660025838,mol/L,178.275,2.6377000000000006,20.23,1.0,1.0
[Cl-].CCCCCCCCCC[N+](C)(C)CCCCCCCCCC,water,298,-2.967747126,mol/L,362.08600000000024,4.348200000000002,0.0,0.0,0.0
Fc1ccc(cc1)C([NH+]2CC[NH2+]CC2)c3ccc(F)cc3,water,298,-2.878601076,mol/L,290.35699999999997,0.5160999999999998,21.05,2.0,0.0
CC(C)[C@@H]1CC[C@@H](C)C[C@H]1O,water,298,-2.619841565,mol/L,156.269,2.439500000000001,20.23,1.0,1.0
Nc1nc(N)nc(N)n1.O[P](O)(=O)O[P](O)(O)=O,water,298,-2.90897944,mol/L,304.096,-2.1933999999999996,241.01999999999992,7.0,9.0
C=CC(=O)OCCCCCCOC(=O)C=C,water,298,-2.798328315,mol/L,226.27199999999996,2.0052,52.6,0.0,4.0
CC(=C)C(=O)OC(C)(C)C,water,298,-2.596590987,mol/L,142.19799999999998,1.9042000000000001,26.3,0.0,2.0
Cc1ccc(NCCO)c(c1)[N+]([O-])=O,water,298,-2.747405168,mol/L,196.20600000000002,1.3074199999999998,75.4,2.0,4.0
Cc1ccc(cc1)[N+]([O-])=O,water,298,-2.599338716,mol/L,137.138,1.90322,43.14,0.0,2.0
[O-][N+](=O)c1ccccc1Cl,water,298,-2.671095669,mol/L,157.55599999999998,2.2482000000000006,43.14,0.0,2.0
C=COC1CCCCC1,water,298,-2.582541974,mol/L,126.19900000000001,2.4792000000000005,9.23,0.0,1.0
C=COCCCCOC=C,water,298,-2.64774351,mol/L,142.19799999999998,2.0868,18.46,0.0,2.0
OC(=O)CN(CCN(CC(O)=O)CC(O)=O)CC(O)=O,water,298,-2.960595625,mol/L,292.244,-2.0711999999999957,155.68,4.0,6.0
CCCCCCCCN,water,298,-2.606270493,mol/L,129.247,2.3056,26.02,1.0,1.0
Nc1ccc2cc(cc(O)c2c1)[S](O)(=O)=O,water,298,-2.883311239,mol/L,239.252,1.3743,100.62,3.0,4.0
C=CCOc1nc(OCC=C)nc(OCC=C)n1,water,298,-2.90530832,mol/L,249.26999999999998,1.5659999999999998,66.36,0.0,6.0
[Na+].[Na+].CC1=NN(c2cccc(c2)[S]([O-])(=O)=O)C(=O)C1N=Nc3cc(Cl)c(Cl)cc3[S]([O-])(=O)=O,water,298,-3.264264375,mol/L,551.2970000000003,-3.315399999999995,171.79,0.0,10.0
CCc1ccc(CC)cc1.CC(C)c2ccccc2.Cc3ccccc3.Cc4cc(C)cc(C)c4.C5CCc6ccccc6C5.C7Cc8ccccc8C7.C9C=Cc%10ccccc9%10.c%11ccccc%11.c%12ccc%13ccccc%13c%12,water,298,-3.539740421,mol/L,1039.589,21.75128000000002,0.0,0.0,0.0
CCCCC.CCc1ccccc1.Cc2ccccc2.Cc3cccc(C)c3.C4CCCC4,water,298,-3.172955944,mol/L,446.7630000000004,10.694459999999992,0.0,0.0,0.0
O[S](=O)(=O)c1ccc2nc([nH]c2c1)c3ccccc3,water,298,-2.961106136,mol/L,274.301,2.4766000000000004,83.04999999999998,2.0,3.0
C[C@@H](CCO)CCC=C(C)C,water,298,-2.716751578,mol/L,156.26899999999998,2.7513000000000014,20.23,1.0,1.0
Cc1cc(O)cc(C)c1Cl,water,298,-2.717703781,mol/L,156.61199999999997,2.662440000000001,20.23,1.0,1.0
O=C1CCCCCCCCCCCN1,water,298,-2.818054254,mol/L,197.32199999999997,3.0172000000000008,29.1,1.0,1.0
Cc1ccccc1.C=Cc2ccccc2.c3ccccc3,water,298,-2.961273931,mol/L,274.40700000000004,6.011220000000006,0.0,0.0,0.0
[Mn++].[O-]C(=O)C([O-])=O,water,298,-2.678081133,mol/L,142.956,-3.5163,80.25999999999999,0.0,4.0
[Li+].[Li+].[Li+].[O-][P]([O-])([O-])=O,water,298,-2.566561051,mol/L,115.79299999999999,-11.8126,86.25,0.0,4.0
[Li+].[Li+].[Li+].[O-][P]([O-])([O-])=O,water,298,-2.590925857,mol/L,115.79299999999999,-11.8126,86.25,0.0,4.0
COc1ccc2CCCCc2c1,water,298,-2.747738524,mol/L,162.232,2.5740000000000007,9.23,0.0,1.0
O=C1CCCCCCCCCCCN1,water,298,-2.832777511,mol/L,197.32199999999997,3.0172000000000008,29.1,1.0,1.0
Nc1cccc2c(N)cccc12,water,298,-2.767853696,mol/L,158.204,2.0042,52.04,2.0,2.0
[Li+].[Li+].[Li+].[O-][P]([O-])([O-])=O,water,298,-2.632318542,mol/L,115.79299999999999,-11.8126,86.25,0.0,4.0
CC(O)CCC1CCCCC1,water,298,-2.767361572,mol/L,156.26899999999998,2.7277000000000013,20.23,1.0,1.0
CCCCCCCl,water,298,-2.666456778,mol/L,120.623,2.805500000000001,0.0,0.0,0.0
[Ba++].OC(C(O)C([O-])=O)C([O-])=O,water,298,-3.052330404,mol/L,285.398,-5.172799999999999,120.72,2.0,6.0
CCCCOCOCCCC,water,298,-2.806877,mol/L,160.25699999999998,2.577300000000001,18.46,0.0,2.0
Cc1ccc(C=O)cc1,water,298,-2.681787381,mol/L,120.15099999999998,1.80752,17.07,0.0,1.0
O[C@H]([C@H]1C[C@@H]2CCN1C[C@@H]2C=C)c3ccnc4ccccc34,water,298,-3.088723614,mol/L,294.398,3.164600000000002,36.36,1.0,3.0
[Cl-].CCCCCCCCCCCCCCCC[N+](C)(C)C,water,298,-3.124945522,mol/L,320.005,3.1779,0.0,0.0,0.0
CC1(C)COC(=O)C2CC=CCC2C(=O)OC1,water,298,-3.004181056,mol/L,238.28299999999996,1.695,52.60000000000001,0.0,4.0
COC(=O)C1C(=CCCC1(C)C)C,water,298,-2.89521053,mol/L,182.26299999999998,2.541900000000001,26.3,0.0,2.0
CC(C)[C@H]1CC[C@@H](C)CC1O,water,298,-2.830260853,mol/L,156.269,2.439500000000001,20.23,1.0,1.0
[Na+].CNCC[S]([O-])(=O)=O,water,298,-2.845524033,mol/L,161.158,-4.244999999999997,69.22999999999999,1.0,4.0
COC(=O)C1C(=CCCC1(C)C)C,water,298,-2.908515996,mol/L,182.26299999999998,2.541900000000001,26.3,0.0,2.0
CCOc1nc(NC)nc(NC(=O)N[S](=O)(=O)c2ccccc2C(=O)OC)n1,water,298,-3.265499834,mol/L,410.4120000000002,0.6089999999999994,161.5,3.0,10.0
[F-].[F-].[F-].[F-].[F-].[F-].[Na+].[Na+].[Na+].[Al+3],water,298,-2.985635459,mol/L,209.94000000000003,-27.344799999999996,0.0,0.0,0.0
C1CN(CCO1)SSN2CCOCC2,water,298,-3.041139196,mol/L,236.36199999999994,0.8621999999999999,24.94,0.0,6.0
CCCCC(CC)CO[P](O)(=O)OCC(CC)CCCC,water,298,-3.186210761,mol/L,322.4260000000001,5.552800000000006,55.760000000000005,1.0,3.0
CC(C)(C)C#C,water,298,-2.613556425,mol/L,82.14599999999999,1.6657,0.0,0.0,0.0
[Cl-].CCCCCCCCCCCCCC[N+](C)(C)CCCCCCCCCCCCCC,water,298,-3.37502496,mol/L,474.30200000000053,7.469000000000007,0.0,0.0,0.0
OC(C1CC2CCN1CC2C=C)c3ccnc4ccccc34,water,298,-3.16790486,mol/L,294.398,3.164600000000002,36.36,1.0,3.0
CCc1ccccc1,water,298,-2.724963641,mol/L,106.16799999999996,2.2490000000000006,0.0,0.0,0.0
CC(C)C(=O)OCCOc1ccccc1,water,298,-3.026343537,mol/L,208.257,2.2646000000000006,35.53,0.0,3.0
CC1=C(N2C(SC1)C(N)C2=O)C(O)=O,water,298,-3.045355413,mol/L,214.24599999999998,-0.41260000000000013,83.63,2.0,4.0
CCCCCC(=O)OCC=C,water,298,-2.910449305,mol/L,156.22499999999997,2.2959000000000005,26.3,0.0,2.0
CCC(C)(C)c1ccc(O)cc1,water,298,-2.936746489,mol/L,164.248,3.0798000000000014,20.23,1.0,1.0
CC(Cc1ccccc1)(C=C)C#N,water,298,-2.966441099,mol/L,171.24299999999997,2.944980000000001,23.79,0.0,1.0
Cc1ccc(C(N)=O)c(O)c1,water,298,-2.917000159,mol/L,151.16500000000002,0.79952,63.32000000000001,2.0,2.0
CCCCC(CC)CO[P](O)(=O)OCC(CC)CCCC,water,298,-3.248358668,mol/L,322.4260000000001,5.552800000000006,55.760000000000005,1.0,3.0
Clc1ccc2CC(=O)Nc2c1,water,298,-2.968988553,mol/L,167.595,1.8345999999999996,29.1,1.0,1.0
NC12CC3CC(CC(C3)C1)C2,water,298,-2.936665949,mol/L,151.253,1.9139,26.02,1.0,1.0
CCCCC(CC)C(=O)OC,water,298,-2.961272916,mol/L,158.24099999999999,2.375800000000001,26.3,0.0,2.0
CC(Cc1ccccc1)(C=C)C#N,water,298,-3.000616717,mol/L,171.24299999999997,2.944980000000001,23.79,0.0,1.0
CCCCOC(=O)\C=C/C(=O)OCCCC,water,298,-3.128034162,mol/L,228.28799999999993,2.2291999999999996,52.60000000000001,0.0,4.0
CC(Cc1ccccc1)(C=C)C#N,water,298,-3.005726123,mol/L,171.24299999999997,2.944980000000001,23.79,0.0,1.0
CC(=O)/C=C/C1=C(C)CCCC1(C)C,water,298,-3.056097096,mol/L,192.30199999999996,3.6582000000000026,17.07,0.0,1.0
N[C@@H](CSSC[C@H](N)C(O)=O)C(O)=O,water,298,-3.159921987,mol/L,240.306,-0.8083999999999993,126.64000000000001,4.0,6.0
COC(=O)C1C(=CCCC1(C)C)C,water,298,-3.04851091,mol/L,182.26299999999998,2.541900000000001,26.3,0.0,2.0
CCCCC(CC)C(=O)OC,water,298,-2.989804004,mol/L,158.24099999999999,2.375800000000001,26.3,0.0,2.0
C1CCC=CC1,water,298,-2.710466438,mol/L,82.146,2.1166,0.0,0.0,0.0
OCCN1C(=O)Nc2ccccc2C1=O,water,298,-3.112893643,mol/L,206.201,-0.3179000000000005,75.09,2.0,4.0
CCCCCCC[C@H]1CCC(=O)O1,water,298,-3.06681876,mol/L,184.27899999999997,3.052500000000002,26.3,0.0,2.0
[Ca++].O[P]([O-])([O-])=O,water,298,-2.949026268,mol/L,136.056,-2.5734,83.41999999999999,1.0,3.0
CCCC=C,water,298,-2.675673086,mol/L,70.135,1.9725,0.0,0.0,0.0
CC(C)CCCCCN(CCCCCC(C)C)CCCCCC(C)C,water,298,-3.384256418,mol/L,353.67900000000014,7.93760000000001,3.24,0.0,1.0
CCCCC(CC)COCC1CO1,water,298,-3.114865162,mol/L,186.29499999999996,2.6182000000000007,21.759999999999998,0.0,2.0
O=[P]12OB(O1)O2,water,298,-2.869075736,mol/L,105.782,0.15639999999999987,44.760000000000005,0.0,4.0
CCCCC(CC)C(=O)OC,water,298,-3.043982981,mol/L,158.24099999999999,2.375800000000001,26.3,0.0,2.0
OC(Cn1ccnc1)c2ccc(Cl)cc2Cl,water,298,-3.264007824,mol/L,257.12,2.9235000000000015,38.05,1.0,3.0
COc1ccc2nccc([C@H](O)[C@H]3C[C@@H]4CCN3C[C@@H]4C=C)c2c1,water,298,-3.364984939,mol/L,324.4240000000001,3.1732000000000014,45.59,1.0,4.0
CCCCC(CC)CO[P](O)(=O)OCC(CC)CCCC,water,298,-3.36230202,mol/L,322.4260000000001,5.552800000000006,55.760000000000005,1.0,3.0
[Na+].[Na+].[O-][S](=O)(=O)c1cc(Nc2nc(Nc3ccccc3)nc(Nc4ccccc4)n2)ccc1\C=C\c5ccc(Nc6nc(Nc7ccccc7)nc(Nc8ccccc8)n6)cc5[S]([O-])(=O)=O,water,298,-3.825587453,mol/L,936.9479999999999,2.504800000000004,263.92,6.0,18.0
[NH3+]CCCCCCCCCCCC([O-])=O,water,298,-3.196398091,mol/L,215.33699999999996,0.8791999999999991,67.77000000000001,1.0,2.0
CC(C)CC1CC(C)CCO1,water,298,-3.079929481,mol/L,156.26899999999998,2.8476000000000017,9.23,0.0,1.0
C1CN(CCO1)SSN2CCOCC2,water,298,-3.259634304,mol/L,236.36199999999994,0.8621999999999999,24.94,0.0,6.0
Fc1cc(Br)cc(F)c1F,water,298,-3.210297936,mol/L,210.97999999999996,2.8664000000000005,0.0,0.0,0.0
S=C(SN1CCOCC1)N2CCOCC2,water,298,-3.291300662,mol/L,248.37299999999993,0.5838999999999999,24.94,0.0,5.0
Clc1cccc(Cl)c1,water,298,-3.070419139,mol/L,147.004,2.993400000000001,0.0,0.0,0.0
CCC(=O)N(C1CCN(CC1)Cc2ccccc2)c3ccccc3,water,298,-3.41504339,mol/L,322.452,4.094200000000003,23.550000000000004,0.0,2.0
Clc1cccc(Cl)c1,water,298,-3.077424041,mol/L,147.004,2.993400000000001,0.0,0.0,0.0
N[C@@H](CSSC[C@H](N)C(O)=O)C(O)=O,water,298,-3.294404784,mol/L,240.306,-0.8083999999999993,126.64000000000001,4.0,6.0
CCCCCCCC\C=C/CCCCCCCC1=NCCN1CCO,water,298,-3.544800763,mol/L,350.59100000000007,5.730300000000007,35.83,1.0,3.0
Cc1cc(C)c(O)c(c1)C(C)(C)C,water,298,-3.171909199,mol/L,178.27499999999998,3.306540000000002,20.23,1.0,1.0
Cc1cccc2NC(=S)Nc12,water,298,-3.13627918,mol/L,164.233,2.5339099999999997,31.58,2.0,1.0
[Na+].[Na+].[Na+].[Na+].[Na+].CCCCCCCCCCCC(O)=O.CCCCCCCCCCCC([O-])=O.CCCCCCCCCCCC(=O)OC(C)C([O-])=O.CCCCCCCCCC(O)=O.CCCCCCCCCC([O-])=O.CCCCCCCCCC(=O)OC(C)C([O-])=O.CC(O)C([O-])=O,water,298,-4.085731667,mol/L,1461.8839999999993,-0.7275000000000229,348.08,3.0,17.0
CCCCCCCCCCC=O,water,298,-3.152023201,mol/L,170.296,3.7161000000000026,17.07,0.0,1.0
FC(F)(F)c1ccc(Cl)c(Cl)c1,water,298,-3.267982491,mol/L,215.00099999999998,4.012200000000001,0.0,0.0,0.0
CCCCOCCCC,water,298,-3.061635932,mol/L,130.231,2.603200000000001,9.23,0.0,1.0
Clc1cccc(Cl)c1,water,298,-3.122006173,mol/L,147.004,2.993400000000001,0.0,0.0,0.0
C1CN(CCO1)SSN2CCOCC2,water,298,-3.332184971,mol/L,236.36199999999994,0.8621999999999999,24.94,0.0,6.0
CC(=O)/C=C/C1=C(C)CCCC1(C)C,water,298,-3.242591116,mol/L,192.30199999999996,3.6582000000000026,17.07,0.0,1.0
CC(O)COc1ccc(cc1)C(C)(C)c2ccc(OCC(C)O)cc2,water,298,-3.499700952,mol/L,344.4510000000001,3.5317000000000025,58.92,2.0,4.0
Cc1ccc(Cl)cc1,water,298,-3.077079812,mol/L,126.586,2.6484200000000007,0.0,0.0,0.0
CCC(C)Br,water,298,-3.111478098,mol/L,137.01999999999998,2.1798,0.0,0.0,0.0
CC(C)COC(=O)Cc1ccccc1,water,298,-3.271047196,mol/L,192.258,2.4283,26.3,0.0,2.0
C[C@]12CCC(=O)C=C1CC[C@@H]3[C@@H]2CC[C@@]4(C)[C@H]3CCC4(O)C#CCO,water,298,-3.526033775,mol/L,342.4790000000001,3.245100000000002,57.53,2.0,3.0
Cc1ccc(Cl)cc1,water,298,-3.102385677,mol/L,126.586,2.6484200000000007,0.0,0.0,0.0
C=CC1CC2CC1C=C2,water,298,-3.079886402,mol/L,120.19499999999996,2.3846000000000007,0.0,0.0,0.0
CC(C)CCC(C)(O)C#CC(C)(O)CCC(C)C,water,298,-3.437525292,mol/L,254.41399999999996,3.364200000000002,40.46,2.0,2.0
S.[Ni],water,298,-3.022952972,mol/L,92.776,0.11030000000000006,0.0,0.0,0.0
[Fe+3].[O-][P]([O-])([O-])=O,water,298,-3.261464491,mol/L,150.815,-2.8271,86.25,0.0,4.0
OC(Cn1ccnc1)c2ccc(Cl)cc2Cl,water,298,-3.496322007,mol/L,257.12,2.9235000000000015,38.05,1.0,3.0
CCOC(=O)C1=C(C)C=CCC1(C)C,water,298,-3.376192626,mol/L,194.27399999999997,2.852100000000001,26.3,0.0,2.0
C1CCCCC1,water,298,-3.022080351,mol/L,84.162,2.3406000000000002,0.0,0.0,0.0
Nc1cccc(c1)[S](=O)(=O)c2cccc(N)c2,water,298,-3.511895604,mol/L,248.307,1.6838,86.18,2.0,4.0
CCOC(=O)C1=C(C)C=CCC1(C)C,water,298,-3.411619706,mol/L,194.27399999999997,2.852100000000001,26.3,0.0,2.0
CCOC(=O)C1=C(C)C=CCC1(C)C,water,298,-3.457826014,mol/L,194.27399999999997,2.852100000000001,26.3,0.0,2.0
CCCCCCCCCCCCCCCCN,water,298,-3.583510043,mol/L,241.4629999999999,5.4264000000000046,26.02,1.0,1.0
CCCCCCCCCCCCN,water,298,-3.468663756,mol/L,185.35499999999996,3.8660000000000023,26.02,1.0,1.0
CCCCCCCCCCCCCCCCCCN,water,298,-3.631245614,mol/L,269.5169999999999,6.206600000000005,26.02,1.0,1.0
[O-][N+](=O)c1cccc(C#N)c1C#N,water,298,-2.937344842,mol/L,173.13099999999997,1.33816,90.72,0.0,4.0
ClCCN1C(=O)Nc2ccccc2C1=O,water,298,-3.574799439,mol/L,224.647,0.9285999999999999,54.86,1.0,3.0
CC1(C)CCC=C(C1)C(=O)CCC=C,water,298,-3.534247486,mol/L,192.30199999999996,3.6582000000000026,17.07,0.0,1.0
CCCC[C@H](CC)COCCOCCOC(=O)C=C.CCCC[C@@H](CC)COCCOCCOC(=O)C=C,water,298,-3.994274106,mol/L,544.7700000000004,5.930400000000007,89.52000000000001,0.0,8.0
[Na+].[Na+].[Cr+3].Cc1nn(c([O-])c1N=Nc2cc(ccc2[O-])[S]([O-])(=O)=O)c3ccccc3.[O-]c4ccc(cc4N=Nc5c([O-])ccc6ccccc56)N=Nc7ccccc7,water,298,-2.691606678,mol/L,835.7099999999999,1.470720000000005,241.42000000000002,0.0,15.0
[Cl-].C[N+](C)=CCC(O)CC(N)=O,water,298,0.605422472,mol/L,194.66199999999998,-4.040299999999997,66.33000000000001,2.0,2.0
CCCCCCCCCCCCN1CCCC1=O,water,298,-3.690367481,mol/L,253.42999999999992,4.529700000000004,20.310000000000002,0.0,1.0
[Cl-].C[N+](C)=CCC(O)CC(N)=O,water,298,0.597322333,mol/L,194.66199999999998,-4.040299999999997,66.33000000000001,2.0,2.0
CCOC(=C)C1C(C)(C)CC(=O)CC1(C)C,water,298,-3.643344283,mol/L,224.34399999999994,3.568100000000003,26.3,0.0,2.0