Solute,Solvent,Temperature_K,Solubility,Units,MW,LogP,TPSA,HBD,HBA
Cc1cccc(N)c1,water,298,-1.030016494,mol/L,107.156,1.5772199999999998,26.02,1.0,1.0
N.N.OC(O)=O,water,298,-0.982660114,mol/L,96.08599999999998,0.5463999999999996,127.53,4.0,3.0
COC(OC)OC,water,298,-1.025801334,mol/L,106.121,0.20920000000000005,27.69,0.0,3.0
OCC(CBr)(CBr)CBr,water,298,-2.226109519,mol/L,324.83799999999997,2.1498,20.23,1.0,1.0
Nc1cc(Cl)c(Cl)cc1[S](O)(=O)=O,water,298,-2.105210692,mol/L,242.083,1.8223000000000003,80.39,2.0,3.0
[Na+].[Na+].[O-][S](=O)(=O)c1cc(Nc2nc(Nc3ccccc3)nc(n2)N4CCOCC4)ccc1/C=C/c5ccc(Nc6nc(Nc7ccccc7)nc(n6)N8CCOCC8)cc5[S]([O-])(=O)=O,water,298,-2.687357143,mol/L,924.9339999999997,-1.3091999999999886,264.8,4.0,20.0
[O-][N+](=O)c1ccccc1,water,298,-1.811543258,mol/L,123.11099999999996,1.5948,43.14,0.0,2.0
COC(=O)c1ccc(O)cc1,water,298,-1.908111253,mol/L,152.149,1.1788,46.53,1.0,3.0
[nH]1ccnc1c2ccccc2,water,298,-1.88938304,mol/L,144.177,2.0766999999999998,28.68,1.0,1.0
[Sr].OC(C(O)C(O)=O)C(O)=O,water,298,-2.1065272,mol/L,237.706,-2.5033999999999996,115.06,4.0,4.0
CCOc1nc(NC)nc(NC(=O)N[S](=O)(=O)c2ccccc2C(=O)OC)n1,water,298,-2.344080854,mol/L,410.4120000000002,0.6089999999999994,161.5,3.0,10.0
OCCNc1ccccc1[N+]([O-])=O,water,298,-1.993326586,mol/L,182.17899999999997,0.9989999999999999,75.4,2.0,4.0
Cc1oncc1C([O-])=O,water,298,-1.05536111,mol/L,126.09099999999998,-0.6534800000000001,66.16,0.0,4.0
[O-][N+](=O)OCC(CO[N+]([O-])=O)O[N+]([O-])=O,water,298,-2.100915943,mol/L,227.08499999999998,-1.0200999999999996,157.11,0.0,9.0
CC1CC=C(C)C(=O)C1C,water,298,-1.885266962,mol/L,138.20999999999998,2.1776999999999997,17.07,0.0,1.0
Clc1ccccc1C=O,water,298,-1.89261705,mol/L,140.56899999999996,2.1525,17.07,0.0,1.0
[Mn++].CCCCC(CC)C(O)=O,water,298,-2.043912167,mol/L,199.152,2.2849,37.3,1.0,1.0
CC(C)COC(=O)C=C,water,298,-1.852517268,mol/L,128.17099999999996,1.3716000000000002,26.3,0.0,2.0
CC1CC(O)CC(C)(C)C1,water,298,-1.897755345,mol/L,142.24199999999996,2.1935000000000002,20.23,1.0,1.0
CCCCC(CC)COCC(O)CO,water,298,-2.055017119,mol/L,204.30999999999997,1.5725999999999998,49.69,2.0,3.0
NC(=O)c1ccc(Cl)c(N)c1,water,298,-1.976703976,mol/L,170.599,1.0211000000000001,69.11,2.0,2.0
COc1cc(N[S](=O)(=O)c2ccccc2)c3C(=O)c4ccccc4C(=O)c3c1N,water,298,-2.355850446,mol/L,408.43500000000023,2.853600000000001,115.55999999999999,2.0,6.0
CCCCOCc1ccc(O)c(OC)c1,water,298,-2.06993048,mol/L,210.27299999999997,2.717500000000001,38.69,1.0,3.0
C1OC1COc2cccc(c2)N(CC3CO3)CC4CO4,water,298,-2.192561189,mol/L,277.32,1.0681999999999998,50.06,0.0,5.0
c1ccccc1,water,298,-1.642308875,mol/L,78.11399999999999,1.6866,0.0,0.0,0.0
CC1(C)CC(CC(C)(C)N1)NCCCCCCNC2CC(C)(C)NC(C)(C)C2,water,298,-2.350745656,mol/L,394.6920000000002,4.344400000000003,48.12,4.0,4.0
CCOC(=O)CC(C)C,water,298,-1.869054952,mol/L,130.18699999999998,1.5956000000000001,26.3,0.0,2.0
[OH-].[OH-].[Ca++],water,298,-1.631725215,mol/L,74.09200000000001,-0.7343999999999999,60.0,0.0,2.0
COc1ccccc1,water,298,-1.800990255,mol/L,108.13999999999997,1.6952,9.23,0.0,1.0
CC(C)CC(C)(O)C#CC(C)(O)CC(C)C,water,298,-2.124350764,mol/L,226.35999999999996,2.5840000000000005,40.46,2.0,2.0
CCCCOC(=O)C=C,water,298,-1.877340851,mol/L,128.17099999999996,1.5157,26.3,0.0,2.0
O=C1NSc2ccccc12,water,298,-1.950353365,mol/L,151.18999999999997,1.5896,32.86,1.0,2.0
CCCCOCc1ccc(O)c(OC)c1,water,298,-2.094896806,mol/L,210.27299999999997,2.717500000000001,38.69,1.0,3.0
[H+].[Cl-].Nc1cc(Cl)ccc1Cl,water,298,-2.07500028,mol/L,198.48000000000002,-0.3078999999999996,26.02,1.0,1.0
[Na+].[Na+].CCCCCCCCCCCC(=O)O[C@@H](C)C[S]([O-])(=O)=O.CCCCCCCCCCCC(=O)O[C@H](C)C[S]([O-])(=O)=O,water,298,-2.618046836,mol/L,688.8980000000005,0.7764000000000089,166.99999999999997,0.0,10.0
O=C1NSc2ccccc12,water,298,-1.961775994,mol/L,151.18999999999997,1.5896,32.86,1.0,2.0
Nc1scc(CC(O)=O)n1,water,298,-1.981673118,mol/L,158.182,0.35240000000000005,76.21000000000001,2.0,4.0
N#CC1(CC[NH+](CC1)Cc2ccccc2)[NH+]3CCCCC3,water,298,-2.245992211,mol/L,285.4350000000001,0.19648000000000088,32.67,2.0,1.0
CCN(CC)c1cccc(O)c1,water,298,-2.011278797,mol/L,165.236,2.2384000000000004,23.47,1.0,2.0
[O-][N+](=O)OCC(CO[N+]([O-])=O)O[N+]([O-])=O,water,298,-2.152068465,mol/L,227.08499999999998,-1.0200999999999996,157.11,0.0,9.0
Cc1ccccc1[S](N)(=O)=O,water,298,-2.029437047,mol/L,171.22099999999998,0.6424200000000001,60.160000000000004,1.0,2.0
ClCC(Cl)C=C,water,298,-1.892783082,mol/L,124.99799999999999,2.0186,0.0,0.0,0.0
COC(=O)C=C1CCCC1,water,298,-1.942572269,mol/L,140.182,1.6598,26.3,0.0,2.0
CC(CCl)O[P](=O)(OC(C)CCl)OC(C)CCl,water,298,-2.31118679,mol/L,327.572,4.026200000000004,44.760000000000005,0.0,4.0
NCC(F)F,water,298,0.535211409,mol/L,81.065,0.21019999999999994,26.02,1.0,1.0
C[P](=O)(Oc1ccccc1)Oc2ccccc2,water,298,-2.201708674,mol/L,248.21800000000002,3.9673000000000025,35.53,0.0,3.0
C/C=C/C=C/C(O)=O,water,298,-1.856589478,mol/L,112.12799999999999,1.2033,37.3,1.0,1.0
NCC(F)F,water,298,0.532075695,mol/L,81.065,0.21019999999999994,26.02,1.0,1.0
Fc1ccccc1,water,298,-1.792409766,mol/L,96.10399999999998,1.8256999999999999,0.0,0.0,0.0
[Na+].CCCCCCCCCCCCCCCCCO[S]([O-])(=O)=O,water,298,-2.366992667,mol/L,358.52000000000004,2.3385999999999996,66.43,0.0,4.0
CC1(C)C2CCC1(C)C(=O)C2,water,298,-1.99576159,mol/L,152.237,2.401700000000001,17.07,0.0,1.0
Fc1ccccc1,water,298,-1.801360989,mol/L,96.10399999999998,1.8256999999999999,0.0,0.0,0.0
NCC(F)F,water,298,0.522530377,mol/L,81.065,0.21019999999999994,26.02,1.0,1.0
NC(Nc1ccccc1)=Nc2ccccc2,water,298,-2.148742462,mol/L,211.26799999999997,2.7449000000000012,50.41,2.0,1.0
[O-][N+](=O)OCC(CO[N+]([O-])=O)O[N+]([O-])=O,water,298,-2.180097189,mol/L,227.08499999999998,-1.0200999999999996,157.11,0.0,9.0
CC(=O)OCC1OC(OC(C)=O)C(OC(C)=O)C(OC(C)=O)C1OC(C)=O,water,298,-2.415352911,mol/L,390.3410000000002,-0.3673999999999986,140.73000000000002,0.0,11.0
CC(C)(CO)Cc1ccccc1,water,298,-2.042313822,mol/L,164.248,2.2476000000000003,20.23,1.0,1.0
C1OC1c2ccccc2,water,298,-1.906541121,mol/L,120.15099999999995,1.7579,12.53,0.0,1.0
COC(=O)C=C1CCCC1,water,298,-1.973505983,mol/L,140.182,1.6598,26.3,0.0,2.0
CC(C)(C)OOC(=O)C(C)(C)C,water,298,-2.067961594,mol/L,174.23999999999998,2.3058000000000005,35.53,0.0,3.0
CCO[Si](OCC)(OCC)OCC,water,298,-2.145565545,mol/L,208.32999999999996,1.568,36.92,0.0,4.0
CC\C=C/CC1=C(C)CCC1=O,water,298,-2.045238375,mol/L,164.248,3.022100000000002,17.07,0.0,1.0
Clc1ccccc1C=O,water,298,-1.980572221,mol/L,140.56899999999996,2.1525,17.07,0.0,1.0
CCC(C)c1ccccc1O,water,298,-2.012377793,mol/L,150.22099999999998,2.9057000000000017,20.23,1.0,1.0
Oc1cccc2ccccc12,water,298,-2.003547898,mol/L,144.17299999999997,2.5454000000000008,20.23,1.0,1.0
Cc1ccc(C)c(O)c1C,water,298,-1.981869631,mol/L,136.194,2.3174600000000005,20.23,1.0,1.0
CCCCCCCCN(CCO)CCO,water,298,-2.191037603,mol/L,217.35299999999998,1.6335,43.7,2.0,3.0
Cc1ccc(C)c(O)c1C,water,298,-1.98802994,mol/L,136.194,2.3174600000000005,20.23,1.0,1.0
CCCCC(CC)C(O)=O,water,298,-2.012879387,mol/L,144.21399999999997,2.2874,37.3,1.0,1.0
O=Cc1ccc2OCOc2c1,water,298,-2.030348127,mol/L,150.13299999999998,1.2278,35.53,0.0,3.0
Cc1cc(O)ccc1N,water,298,-1.944324013,mol/L,123.15499999999999,1.2828199999999998,46.25,2.0,2.0
OC(=O)c1cc(cc(c1)[N+]([O-])=O)C(O)=O,water,298,-2.178419855,mol/L,211.12899999999996,0.9911999999999999,117.74000000000001,2.0,4.0
CCCCOC(=O)C=C,water,298,-1.961661737,mol/L,128.17099999999996,1.5157,26.3,0.0,2.0
[Na+].Cc1ccc(cc1)[S](=O)(=O)Oc2ccc(Nc3cc(c(N)c4C(=O)c5ccccc5C(=O)c34)[S]([O-])(=O)=O)cc2,water,298,-2.622198475,mol/L,586.5790000000003,0.7720199999999996,172.76,2.0,10.0
CCOC(=O)N[S](=O)(=O)c1ccc(C)cc1,water,298,-2.243098748,mol/L,243.284,1.42982,72.47,1.0,4.0
[Ca++].CCCCCCCCC([O-])=O.CCCCCCCCC([O-])=O,water,298,-2.412949573,mol/L,354.54400000000015,2.593000000000001,80.25999999999999,0.0,4.0
CCOC(OCC)OCC,water,298,-2.040520296,mol/L,148.202,1.3795,27.69,0.0,3.0
[Li+].[F-],water,298,-1.276265442,mol/L,25.939,-5.992,0.0,0.0,0.0
[Li+].[F-],water,298,-1.290101588,mol/L,25.939,-5.992,0.0,0.0,0.0
CCCCCCCCC(=O)N(C)C,water,298,-2.144049559,mol/L,185.311,2.8252000000000015,20.310000000000002,0.0,1.0
Cc1cc(ccc1N=C=O)c2ccc(N=C=O)c(C)c2,water,298,-2.308127519,mol/L,264.284,3.905040000000003,58.86,0.0,4.0
OC(=O)CN(CC(O)=O)CC(O)=O,water,298,-2.167405957,mol/L,191.13899999999998,-1.4577999999999993,115.14000000000001,3.0,4.0
Nc1ccccc1[N+]([O-])=O,water,298,-2.026332083,mol/L,138.126,1.177,69.16,1.0,3.0
CC(=O)\C=C\c1ccccc1,water,298,-2.050971343,mol/L,146.189,2.2888,17.07,0.0,1.0
[Li+].[F-],water,298,-1.310009877,mol/L,25.939,-5.992,0.0,0.0,0.0
Oc1ccc(cc1)C2NC(=O)NC2=O,water,298,-2.17310492,mol/L,192.17399999999998,0.27269999999999983,78.43,3.0,3.0
[Na+].CCCCCCCCCCCC(=O)OCC[S]([O-])(=O)=O,water,298,-2.408479245,mol/L,330.42199999999997,-0.0002999999999986347,83.5,0.0,5.0
O=C1NSc2ccccc12,water,298,-2.069607204,mol/L,151.18999999999997,1.5896,32.86,1.0,2.0
OC(=O)CN(CC(O)=O)CC(O)=O,water,298,-2.17413934,mol/L,191.13899999999998,-1.4577999999999993,115.14000000000001,3.0,4.0
Nc1ccc(NCCO)c(c1)[N+]([O-])=O,water,298,-2.191089976,mol/L,197.19400000000002,0.5811999999999999,101.41999999999999,3.0,5.0
CC(O)CC(C)(C)c1ccccc1,water,298,-2.147286724,mol/L,178.275,2.735100000000001,20.23,1.0,1.0
CCCCOC(=O)C=C,water,298,-2.01087976,mol/L,128.17099999999996,1.5157,26.3,0.0,2.0
Oc1cccc2ccccc12,water,298,-2.061973923,mol/L,144.17299999999997,2.5454000000000008,20.23,1.0,1.0
Nc1cccc(Cl)c1Cl,water,298,-2.130384701,mol/L,162.019,2.5756000000000006,26.02,1.0,1.0
Cc1ccc(Cl)cc1N,water,298,-2.071885074,mol/L,141.601,2.23062,26.02,1.0,1.0
CC(=O)N(CCN(C(C)=O)C(C)=O)C(C)=O,water,298,-2.279225735,mol/L,228.248,-0.22360000000000002,74.76,0.0,4.0
CC(C)C1CCC(C)CC12OCC(CO)O2,water,298,-2.279385535,mol/L,228.33199999999997,2.1826000000000003,38.69,1.0,3.0
[Na+].[Na+].CC(C)(c1ccc(O[S](=O)(=O)c2cccc(NNC3=C4C(=O)C=C(C=C4C=CC3=N)[S](O)(=O)=O)c2)cc1)c5ccc(O[S](=O)(=O)c6cccc(NNC7=C8C(=O)C=C(C=C8C=CC7=N)[S](O)(=O)=O)c6)cc5,water,298,-2.956287317,mol/L,1085.0970000000002,-0.3621599999999876,325.43999999999994,8.0,18.0
CCOC(=O)Cc1ccccc1,water,298,-2.136202486,mol/L,164.204,1.7922,26.3,0.0,2.0
[N-]=[N+]=O,water,298,-1.564399726,mol/L,44.013,-0.1584,53.470000000000006,0.0,1.0
[Na+].Cc1cc(Nc2cc(c(N)c3C(=O)c4ccccc4C(=O)c23)[S]([O-])(=O)=O)cc(c1C)[S](=O)(=O)NCCO,water,298,-2.674843542,mol/L,567.5770000000002,-1.4166599999999976,195.78999999999996,4.0,10.0
O=C1NSc2ccccc12,water,298,-2.101791887,mol/L,151.18999999999997,1.5896,32.86,1.0,2.0
CCCCc1[nH]c(Cl)c(C=O)n1,water,298,-2.199127372,mol/L,186.642,2.2182000000000004,45.75,1.0,2.0
CC\C=C/CCOC(C)=O,water,298,-2.095988637,mol/L,142.198,1.9058,26.3,0.0,2.0
Oc1cccc2ccccc12,water,298,-2.113560957,mol/L,144.17299999999997,2.5454000000000008,20.23,1.0,1.0
O=C1NSc2ccccc12,water,298,-2.134983307,mol/L,151.18999999999997,1.5896,32.86,1.0,2.0
CC\C=C/CCOC(C)=O,water,298,-2.111500803,mol/L,142.198,1.9058,26.3,0.0,2.0
ClC=C(Cl)Cl,water,298,-2.077166322,mol/L,131.389,2.5017000000000005,0.0,0.0,0.0
CCCCN1C(=O)C=C(C)C(=C1O)C#N,water,298,-2.272990744,mol/L,206.24499999999998,1.5340999999999998,66.02000000000001,1.0,4.0
CCCc1ccc(O)c(OC)c1,water,298,-2.179290593,mol/L,166.21999999999997,2.3533,29.46,1.0,2.0
ClCC(Cl)C=C,water,298,-2.055510379,mol/L,124.99799999999999,2.0186,0.0,0.0,0.0
ClC=C,water,298,-1.754480383,mol/L,62.499,1.3687,0.0,0.0,0.0
[Li+].[Li+].[Li+].[F-].[F-].[F-].[F-].[F-].[F-].[Al+3],water,298,-2.167567043,mol/L,161.793,-27.344799999999996,0.0,0.0,0.0
CCCCCCCCN1CCCC1=O,water,298,-2.257749011,mol/L,197.32199999999997,2.9693000000000014,20.310000000000002,0.0,1.0
CCC(C)C\C(CC)=N\O,water,298,-2.130728127,mol/L,143.23000000000002,2.6628000000000007,32.59,1.0,2.0
[Br-].C[N+](C)=C1OCCC1(c2ccccc2)c3ccccc3,water,298,-2.526575134,mol/L,346.26800000000003,0.0676000000000021,12.24,0.0,1.0
Nc1ccccc1[N+]([O-])=O,water,298,0.867472343,mol/L,138.126,1.177,69.16,1.0,3.0
CCCCCCCCN1CCCC1=O,water,298,-2.290854135,mol/L,197.32199999999997,2.9693000000000014,20.310000000000002,0.0,1.0
FC(F)(F)C(Br)=C,water,298,-2.238585126,mol/L,174.947,2.4573,0.0,0.0,0.0
COc1ccc(CC(C)C=O)cc1,water,298,-2.24666187,mol/L,178.231,2.0727,26.3,0.0,2.0
CC(C)(C)CC(C)(C)NC(=O)C=C,water,298,-2.258829245,mol/L,183.295,2.503400000000001,29.1,1.0,1.0
FCC(F)(F)F,water,298,-2.008727887,mol/L,102.03000000000002,1.5182000000000002,0.0,0.0,0.0
NC(Nc1ccccc1)=Nc2ccccc2,water,298,-2.324833721,mol/L,211.26799999999997,2.7449000000000012,50.41,2.0,1.0
COC(C)COC(C)CO,water,298,-2.170854065,mol/L,148.202,0.4186999999999999,38.69,1.0,3.0
Nc1cc(Cl)c(Cl)cc1[S](O)(=O)=O,water,298,-2.383964293,mol/L,242.083,1.8223000000000003,80.39,2.0,3.0
Cc1cc(N)c(cc1Cl)[S](O)(=O)=O,water,298,-2.345697125,mol/L,221.66500000000002,1.4773200000000002,80.39,2.0,3.0
CCC(C)Cl,water,298,-1.966465572,mol/L,92.569,2.0237,0.0,0.0,0.0
OC(=O)c1cc2ccccc2cc1O,water,298,-2.27457808,mol/L,188.182,2.2436000000000003,57.53,2.0,2.0
CCOC(=O)C1OC1(C)c2ccccc2,water,298,-2.314375006,mol/L,206.24099999999999,1.8637,38.83,0.0,3.0
O=[Mo](=O)=O,water,298,-2.158172447,mol/L,143.93699999999998,-0.3589,51.21,0.0,3.0
[Na+].CCC(=O)Nc1cccc(Nc2cc(c(N)c3C(=O)c4ccccc4C(=O)c23)[S]([O-])(=O)=O)c1,water,298,-2.687947003,mol/L,487.4690000000003,0.04440000000000088,158.48999999999998,3.0,8.0
CC(=C)C(=O)OC(C)(C)C,water,298,-2.152893488,mol/L,142.19799999999998,1.9042000000000001,26.3,0.0,2.0
Nc1ccc(Cl)cc1C(F)(F)F,water,298,-2.293481376,mol/L,195.57099999999997,2.9410000000000007,26.02,1.0,1.0
C[Si](C)(C)N[Si](C)(C)C,water,298,-2.210072377,mol/L,161.397,2.2458,12.03,1.0,1.0
C[Si](C)C,water,298,-1.8666346,mol/L,73.19099999999999,1.3705999999999998,0.0,0.0,0.0
CCCCCCC(C)O,water,298,-2.12083746,mol/L,130.231,2.3376000000000006,20.23,1.0,1.0
CC(C)(C)c1ccccc1O,water,298,-2.189958914,mol/L,150.22099999999998,2.6897000000000015,20.23,1.0,1.0
CCCCCCCCN1CCCC1=O,water,298,-2.317451903,mol/L,197.32199999999997,2.9693000000000014,20.310000000000002,0.0,1.0
CC(CCCC(C)(C)O)C=C,water,298,-2.221207241,mol/L,156.269,2.7497000000000016,20.23,1.0,1.0
O=C1NSc2ccccc12,water,298,-2.207320229,mol/L,151.18999999999997,1.5896,32.86,1.0,2.0
CC(Cc1ccc2OCOc2c1)C=O,water,298,-2.31343814,mol/L,192.21399999999997,1.7928,35.53,0.0,3.0
CCC(C)Cl,water,298,-2.001263871,mol/L,92.569,2.0237,0.0,0.0,0.0
[Pd++].CC([O-])=O.CC([O-])=O,water,298,-2.3865009,mol/L,224.50799999999998,-2.490099999999999,80.25999999999999,0.0,4.0
CC1CCOC(C1)C=C(C)C,water,298,-2.224445792,mol/L,154.253,2.7677000000000014,9.23,0.0,1.0
CCCCC(CC)CO,water,298,-2.160471866,mol/L,130.231,2.1951000000000005,20.23,1.0,1.0
CC\C(C)=C\CCC(C)=O,water,298,-2.192586036,mol/L,140.22599999999997,2.711900000000001,17.07,0.0,1.0
[Na+].CC/1=CC(=O)C=CC1=N/Nc2ccc(Nc3ccc(cc3[N+]([O-])=O)[S]([O-])(=O)=O)cc2,water,298,-2.699363586,mol/L,450.4080000000002,0.09959999999999969,153.82999999999998,2.0,9.0
OC(=O)c1oc(cc1)C(O)=O,water,298,-2.239623736,mol/L,156.093,0.6759999999999999,87.74000000000001,2.0,3.0
CCOC(=O)c1ccccc1C(=O)OCC,water,298,-2.394514219,mol/L,222.23999999999995,2.04,52.60000000000001,0.0,4.0
OC(=O)c1cccc(Cl)c1Cl,water,298,-2.331672919,mol/L,191.01299999999998,2.691600000000001,37.3,1.0,1.0
CC(=O)CC(=O)Nc1ccccc1Cl,water,298,-2.376224162,mol/L,211.648,2.2576,46.17,1.0,2.0
Cc1cc(c(N)cc1Cl)[S](O)(=O)=O,water,298,-2.406177873,mol/L,221.66500000000002,1.4773200000000002,80.39,2.0,3.0
CCC(C)Cl,water,298,-2.040637998,mol/L,92.569,2.0237,0.0,0.0,0.0
CC(=O)CC(=O)Nc1ccccc1Cl,water,298,-2.406536077,mol/L,211.648,2.2576,46.17,1.0,2.0
CC(=O)Oc1ccc(Br)cc1,water,298,-2.416604157,mol/L,215.046,2.3744000000000005,26.3,0.0,2.0
CC(=O)CC(=O)Nc1ccccc1Cl,water,298,-2.411800317,mol/L,211.648,2.2576,46.17,1.0,2.0
CC(C)(C)OC(=O)C=C,water,298,-2.19397592,mol/L,128.17099999999996,1.5141,26.3,0.0,2.0
CCCCC(CC)C=O,water,298,-2.20484885,mol/L,128.21499999999997,2.401700000000001,17.07,0.0,1.0
Cc1cc(O)cc(C)c1Cl,water,298,-2.291735049,mol/L,156.61199999999997,2.662440000000001,20.23,1.0,1.0
CCCCC(CC)CO.CCCCC(CC)CC(CC)CO.CCCC(O)C(CC)CO.CCCC(C(CC)CO)C(CC)CO,water,298,-2.925284669,mol/L,665.1380000000003,9.412100000000002,121.38000000000001,6.0,6.0
Sc1ccccc1Cl,water,298,-2.262619284,mol/L,144.62599999999998,2.6287000000000003,0.0,1.0,1.0
Nc1cccc2cccc(N)c12,water,298,-2.307122857,mol/L,158.20399999999998,2.0042,52.04,2.0,2.0
Nc1cccc2cccc(N)c12,water,298,-2.307680002,mol/L,158.20399999999998,2.0042,52.04,2.0,2.0
Nc1cccc2cccc(N)c12,water,298,-2.31160016,mol/L,158.20399999999998,2.0042,52.04,2.0,2.0
Nc1cccc2cccc(N)c12,water,298,-2.320695664,mol/L,158.20399999999998,2.0042,52.04,2.0,2.0
C=CC=C,water,298,-1.8668457,mol/L,54.09199999999999,1.3584,0.0,0.0,0.0
[O-][N+](=O)c1cc(ccc1C#N)C(F)(F)F,water,298,-2.470773563,mol/L,216.11799999999994,2.4852800000000004,66.93,0.0,3.0
Nc1ccc(Cl)c(Cl)c1,water,298,-2.346243087,mol/L,162.019,2.5756000000000006,26.02,1.0,1.0
CC(C)COC=C,water,298,-2.143366155,mol/L,100.16099999999999,1.8025,9.23,0.0,1.0
[Pb++].[O-]c1c(cc(c([O-])c1[N+]([O-])=O)[N+]([O-])=O)[N+]([O-])=O,water,298,-2.808391369,mol/L,450.2870000000002,-0.8224000000000005,175.54,0.0,8.0
CCC\C=C(/CC)C=O,water,298,-2.255957874,mol/L,126.19899999999998,2.3218000000000005,17.07,0.0,1.0
CCCCC(CC)C=O,water,298,-2.262840797,mol/L,128.21499999999997,2.401700000000001,17.07,0.0,1.0
CC(CC(O)=O)CC(C)(C)C,water,298,-2.354220979,mol/L,158.24099999999996,2.533400000000001,37.3,1.0,1.0
CC(=O)CC(=O)Nc1ccc2NC(=O)Nc2c1,water,298,-2.522680786,mol/L,233.227,0.7738,94.82,3.0,3.0
OC(=O)CCCCCCCCCCC(O)=O,water,298,-2.517203441,mol/L,230.30399999999995,3.0566000000000013,74.6,2.0,2.0
Nc1ccc2NC(=O)Nc2c1,water,298,-2.334782902,mol/L,149.15300000000002,0.43840000000000007,74.67,3.0,2.0
CCCCCCCCCCCCCCCCN,water,298,-2.544001501,mol/L,241.4629999999999,5.4264000000000046,26.02,1.0,1.0
CCCCCCCCCCCCN,water,298,-2.429155215,mol/L,185.35499999999996,3.8660000000000023,26.02,1.0,1.0
CCCCCCCCCCCCCCCCCCN,water,298,-2.591737073,mol/L,269.5169999999999,6.206600000000005,26.02,1.0,1.0
CCCCC1OC(C)CC(C)(C)O1,water,298,-2.45329736,mol/L,186.29499999999996,3.106700000000002,18.46,0.0,2.0
CC(C)C(=O)c1ccccc1,water,298,-2.35661526,mol/L,148.20499999999998,2.5253000000000005,17.07,0.0,1.0
[Cl-].CCCCCCCCCC[N+](C)(C)CCCCCCCCCC,water,298,-2.745898377,mol/L,362.08600000000024,4.348200000000002,0.0,0.0,0.0
ClC(Cl)(Cl)Cl,water,298,-2.374107921,mol/L,153.823,2.5529,0.0,0.0,0.0
Nc1cc(cc(C(O)=O)c1O)[N+]([O-])=O,water,298,-2.490779033,mol/L,198.134,0.5808,126.69,3.0,5.0
N.N.[Cl-].[Cl-].[Pd++],water,298,-2.52573978,mol/L,211.388,-5.670500000000001,70.0,2.0,2.0
CO[Si](CCC(F)(F)C(F)(F)C(F)(F)C(F)(F)C(F)(F)C(F)(F)F)(OC)OC,water,298,-2.892356214,mol/L,468.28200000000004,4.993400000000002,27.69,0.0,3.0
CN[S](=O)(=O)c1cc(OC)c(N)cc1C,water,298,-2.576943359,mol/L,230.28899999999996,0.49392,81.42,2.0,4.0
CC(C)(C)c1ccc(O)cc1,water,298,-2.391400814,mol/L,150.22099999999998,2.689700000000001,20.23,1.0,1.0
[F-].[F-].[F-].[F-].[F-].[F-].[Na+].[Na+].[Na+].[Al+3],water,298,-2.542498702,mol/L,209.94000000000003,-27.344799999999996,0.0,0.0,0.0
CCc1ccc(CC)cc1.CC(C)c2ccccc2.Cc3ccccc3.Cc4cc(C)cc(C)c4.C5CCc6ccccc6C5.C7Cc8ccccc8C7.C9C=Cc%10ccccc9%10.c%11ccccc%11.c%12ccc%13ccccc%13c%12,water,298,-3.238710425,mol/L,1039.589,21.75128000000002,0.0,0.0,0.0
CCCCC.CCc1ccccc1.Cc2ccccc2.Cc3cccc(C)c3.C4CCCC4,water,298,-2.871925948,mol/L,446.7630000000004,10.694459999999992,0.0,0.0,0.0
ClCC(Cl)C(Cl)=C,water,298,-2.424454207,mol/L,159.44299999999998,2.5851000000000006,0.0,0.0,0.0
Cc1ccccc1.C=Cc2ccccc2.c3ccccc3,water,298,-2.660243936,mol/L,274.40700000000004,6.011220000000006,0.0,0.0,0.0
CCOC(=O)C(C)CC,water,298,-2.336416369,mol/L,130.18699999999998,1.5956000000000001,26.3,0.0,2.0
Oc1cccc2c(O)cccc12,water,298,-2.426435348,mol/L,160.172,2.2509999999999994,40.46,2.0,2.0
CC(C)(C)C1CCC(=O)CC1,water,298,-2.417381608,mol/L,154.25299999999996,2.791800000000001,17.07,0.0,1.0
CC1(C)[C@@H]2CC[C@]1(C)[C@H](O)C2,water,298,-2.420558395,mol/L,154.253,2.1935000000000002,20.23,1.0,1.0
Nc1ccc(Cl)c(Cl)c1,water,298,-2.446137954,mol/L,162.019,2.5756000000000006,26.02,1.0,1.0
[Mg++].O[P]([O-])([O-])=O,water,298,0.264188022,mol/L,120.28299999999999,-2.5734,83.41999999999999,1.0,3.0