Solute,Solvent,Temperature_K,Solubility,Units,MW,LogP,TPSA,HBD,HBA
BrC(Br)(Br)Br,water,298,-3.1404,mol/L,331.62699999999995,3.1773000000000002,0.0,0.0,0.0
C[S](F)(=O)=O,water,298,-0.5145,mol/L,98.098,-0.08449999999999991,34.14,0.0,2.0
CC1(C)CO1,water,298,-0.0946,mol/L,72.107,0.7952,12.53,0.0,1.0
CC(C)(O)CCl,water,298,0.1602,mol/L,108.56800000000001,0.9961,20.23,1.0,1.0
[O-][N+](=O)C(Br)([N+]([O-])=O)[N+]([O-])=O,water,298,-1.7705,mol/L,229.93,-0.17730000000000007,129.42000000000002,0.0,6.0
CN1CC[C@]23[C@H]4Oc5c(OC(C)=O)ccc(C[C@@H]1[C@@H]2C=C[C@@H]4OC(C)=O)c35,water,298,-2.7894,mol/L,369.4170000000001,1.9886,65.07,0.0,6.0
CCC(C)(C)CC,water,298,-4.2286,mol/L,100.20499999999998,2.832600000000001,0.0,0.0,0.0
CCO[P](=S)(OCC)SCS[P](=S)(OCC)OCC,water,298,-5.2838,mol/L,384.4870000000002,5.005300000000004,36.92,0.0,8.0
CC(C)C=C,water,298,-2.732,mol/L,70.135,1.8284,0.0,0.0,0.0
CCC(C)=C,water,298,-2.7307,mol/L,70.13499999999999,1.9725,0.0,0.0,0.0
CC(=C)CCl,water,298,-1.8108,mol/L,90.553,1.8013,0.0,0.0,0.0
C\C(Cl)=C\Cl,water,298,-1.6138,mol/L,110.971,2.3253000000000004,0.0,0.0,0.0
CC(O)C(C)Cl,water,298,-0.2122,mol/L,108.56800000000001,0.9944999999999999,20.23,1.0,1.0
C1O[C@@H]1[C@H]2CO2,water,298,1.065,mol/L,86.09,-0.21599999999999997,25.06,0.0,2.0
CCC(C)C(C)(C)C,water,298,-4.6776,mol/L,114.23199999999999,3.0786000000000016,0.0,0.0,0.0
CC(C)(O)C1CCC(C)(O)CC1,water,298,-2.2362,mol/L,172.26799999999997,1.6985,40.46,2.0,2.0
CCC(C)C(C)C,water,298,-4.2808,mol/L,100.20499999999998,2.6885000000000012,0.0,0.0,0.0
CCC(C)C(C)O,water,298,-0.7216,mol/L,102.17699999999998,1.4133,20.23,1.0,1.0
CCC(C)C(C)=O,water,298,-0.6805,mol/L,100.16099999999999,1.6215,17.07,0.0,1.0
CCC(O)C(C)C,water,298,-0.7062,mol/L,102.17699999999999,1.4133,20.23,1.0,1.0
CCC(=O)C(C)C,water,298,-0.8106,mol/L,100.16099999999999,1.6215,17.07,0.0,1.0
NCC(O)C(O)=O,water,298,-0.8229,mol/L,105.09299999999999,-1.6094000000000002,83.55000000000001,3.0,3.0
CC(C)C(Br)C(O)=O,water,298,-1.103,mol/L,181.029,1.4905000000000002,37.3,1.0,1.0
CC(C)C(C)C(C)C,water,298,-4.6961,mol/L,114.23199999999999,2.9345000000000017,0.0,0.0,0.0
CC(C)C(=O)C(C)C,water,298,-1.3018,mol/L,114.18799999999997,1.8675,17.07,0.0,1.0
CC(N)C(O)C(O)=O,water,298,-0.3535,mol/L,119.11999999999998,-1.2208999999999997,83.55000000000001,3.0,3.0
COc1cc(cc(OC)c1O)[C@H]2[C@@H]3[C@H](COC3=O)Cc4c(O)c5OCOc5cc24,water,298,-4.1254,mol/L,400.3830000000002,2.3209,103.68000000000002,2.0,8.0
COc1ccc2COC(=O)c2c1OC,water,298,-1.8903,mol/L,194.18599999999998,1.3741999999999999,44.760000000000005,0.0,4.0
OC(=O)c1[nH]cnc1C(O)=O,water,298,-2.4944,mol/L,156.097,-0.19390000000000002,103.28,3.0,3.0
OC1C(O)C(O)C(O[P](O)(O)=O)C(O)C1O,water,298,0.1076,mol/L,260.135,-3.7176000000000005,167.91,7.0,7.0
COCOC(=O)c1ccccc1O,water,298,-2.3,mol/L,182.17499999999998,1.1529,55.760000000000005,1.0,4.0
OC(=O)COc1c(Cl)cc(Cl)cc1Cl,water,298,-3.0133,mol/L,255.484,3.1102000000000007,46.53,1.0,2.0
OC(=O)C1CCNCC1C(O)=O,water,298,-0.5395,mol/L,173.168,-0.6187,86.63,3.0,3.0
Nc1cccc2nc3ccccc3cc12,water,298,-4.222,mol/L,194.23700000000002,2.970200000000001,38.91,1.0,2.0
OC(C(O)c1ccccc1)c2ccccc2,water,298,-1.933,mol/L,214.264,2.4536,40.46,2.0,2.0
CCc1cccc(CC)c1N,water,298,-2.3478,mol/L,149.23699999999997,2.3936,26.02,1.0,1.0
Brc1ccc2ccccc2c1,water,298,-4.4001,mol/L,207.07,3.6023000000000014,0.0,0.0,0.0
Oc1cnc2ccccc2c1,water,298,-2.3925,mol/L,145.16099999999997,1.9403999999999997,33.120000000000005,1.0,2.0
[O-]c1ccc2ccc[nH+]c2c1,water,298,-2.5038,mol/L,145.161,0.7274999999999998,37.2,0.0,1.0
CCN(CC)c1nc(Cl)nc(n1)N(CC)CC,water,298,-4.4112,mol/L,257.76899999999995,2.2173999999999996,45.150000000000006,0.0,5.0
C1N[C@@H](CC=C1)c2cccnc2,water,298,0.7953,mol/L,160.22,1.6722,24.92,1.0,2.0
c1ccc(nc1)c2cccnc2,water,298,-0.5916,mol/L,156.188,2.1435999999999993,25.78,0.0,2.0
S=C1Nc2cncnc2N1,water,298,-2.5243,mol/L,152.18200000000002,1.01549,57.36,2.0,3.0
[K+].[K+].[O-]C(=O)C([O-])=O,water,298,0.1773,mol/L,166.21399999999997,-9.505799999999999,80.25999999999999,0.0,4.0
CC1CCCCC1C,water,298,-4.2719,mol/L,112.216,2.832600000000001,0.0,0.0,0.0
CCC(O)CO,water,298,1.0452,mol/L,90.122,-0.25039999999999996,40.46,2.0,2.0
CC(C)=CC1C(C(=O)OC2CC(=O)C(=C2C)CC=C)C1(C)C,water,298,-4.8179,mol/L,302.41400000000004,4.002000000000003,43.370000000000005,0.0,3.0
C[C@H](NC(N)=O)C(O)=O,water,298,-0.7845,mol/L,132.119,-0.8721999999999999,92.41999999999999,3.0,2.0
CC(C)(C)c1cccc(O)c1,water,298,-1.8614,mol/L,150.22099999999998,2.689700000000001,20.23,1.0,1.0
[O-][N+](=O)c1cccc(Br)c1,water,298,-1.3054,mol/L,202.00699999999998,2.3573000000000004,43.14,0.0,2.0
OC(=O)C\C(=C/C(O)=O)C(O)=O,water,298,0.3612,mol/L,174.10799999999998,-0.4433000000000001,111.9,3.0,3.0
OCC(O)C(O)C(OC1OC(CO)C(O)C(O)C1O)C(O)CO,water,298,0.2872,mol/L,344.31300000000005,-5.761199999999992,200.52999999999997,9.0,11.0
OCC1OC(OCC2OC(O)C(O)C(O)C2O)C(O)C(O)C1O,water,298,0.4656,mol/L,342.297,-5.397199999999993,189.52999999999997,8.0,11.0
Oc1cc(cc(c1)[N+]([O-])=O)[N+]([O-])=O,water,298,-1.663,mol/L,184.10699999999997,1.2086000000000003,106.50999999999999,1.0,5.0
OC(=O)c1ccc(C(O)=O)c(Br)c1,water,298,-2.1339,mol/L,245.02799999999996,1.8455000000000001,74.6,2.0,2.0
CC(C)=C1CCC(=CC1)C,water,298,-4.1566,mol/L,136.238,3.453000000000002,0.0,0.0,0.0
OCc1ccncc1,water,298,0.9621,mol/L,109.12799999999999,0.5739,33.120000000000005,1.0,2.0
NC(=O)OC(CCl)CCl,water,298,-1.3605,mol/L,172.011,0.9279000000000001,52.32000000000001,1.0,2.0
Cc1cccc(CO)c1,water,298,-0.388,mol/L,122.16699999999999,1.48732,20.23,1.0,1.0
OC(=O)COc1cc(Cl)cc(Cl)c1,water,298,-2.3617,mol/L,221.039,2.4568000000000003,46.53,1.0,2.0
OC(=O)COc1cccc(Cl)c1,water,298,-2.1954,mol/L,186.594,1.8034000000000001,46.53,1.0,2.0
c1ccc(cc1)\C=C\c2ccccc2,water,298,-5.7905,mol/L,180.24999999999997,3.857000000000003,0.0,0.0,0.0
OCc1ccc(CO)cc1,water,298,-0.3861,mol/L,138.166,0.6712,40.46,2.0,2.0
CCCC(C)CC,water,298,-4.3063,mol/L,100.205,2.832600000000001,0.0,0.0,0.0
CCC(C)CCO,water,298,-1.3759,mol/L,102.17699999999999,1.4149,20.23,1.0,1.0
CCCC(=O)CC,water,298,-0.8334,mol/L,100.16099999999999,1.7656,17.07,0.0,1.0
CCCCC(C)CC,water,298,-5.1591,mol/L,114.23199999999999,3.2227000000000023,0.0,0.0,0.0
Brc1ccc(I)cc1,water,298,-4.5601,mol/L,282.90599999999995,3.053700000000001,0.0,0.0,0.0
CC1CCC(C)CC1,water,298,-4.4657,mol/L,112.216,2.832600000000001,0.0,0.0,0.0
CCCCOC(=O)CC,water,298,-1.9385,mol/L,130.18699999999998,1.7397,26.3,0.0,2.0
I\C=C/I,water,298,-2.7813,mol/L,279.846,2.3276000000000003,0.0,0.0,0.0
I\C=C\I,water,298,-3.2767,mol/L,279.846,2.3276000000000003,0.0,0.0,0.0
[K+].[O-]C=O,water,298,0.9288,mol/L,84.115,-4.629899999999999,40.129999999999995,0.0,2.0
CCCC(C)(C)C,water,298,-4.3575,mol/L,100.20499999999998,2.832600000000001,0.0,0.0,0.0
CCCC(C)(C)O,water,298,-0.4988,mol/L,102.17699999999998,1.5574,20.23,1.0,1.0
[Cl-].CC(C[N+](C)(C)C)OC(N)=O,water,298,0.5021,mol/L,196.678,-2.819599999999996,52.32,1.0,2.0
CCCCC(C)(C)C,water,298,-5.7568,mol/L,114.23199999999999,3.2227000000000023,0.0,0.0,0.0
CC(C)CC=O,water,298,-0.7891,mol/L,86.13399999999999,1.2314,17.07,0.0,1.0
NC(N)=NC(N)=O.NC(N)=NC(N)=O.O[S](O)(=O)=O,water,298,-0.7814,mol/L,302.273,-3.9757999999999996,289.58000000000004,8.0,4.0
CC1CCCC(=O)C1,water,298,-1.8738,mol/L,112.172,1.7656,17.07,0.0,1.0
CC1=CCCCC1,water,298,-3.2671,mol/L,96.17300000000002,2.5067000000000004,0.0,0.0,0.0
CCCCC(C)C,water,298,-4.5961,mol/L,100.20499999999998,2.832600000000001,0.0,0.0,0.0
CC(=O)OCC=C,water,298,-0.5534,mol/L,100.117,0.7355,26.3,0.0,2.0
C/C=C/CCl,water,298,-1.9569,mol/L,90.553,1.8013,0.0,0.0,0.0
CCCC\C=C\C,water,298,-3.816,mol/L,98.18899999999998,2.752700000000001,0.0,0.0,0.0
CCCCOC=O,water,298,-1.1307,mol/L,102.13299999999998,0.9595,26.3,0.0,2.0
CCCCCCCCCCCCCCCCCC,water,298,-7.6275,mol/L,254.5019999999999,7.267800000000007,0.0,0.0,0.0
FCCl,water,298,-0.8202,mol/L,68.47800000000001,1.1522,0.0,0.0,0.0
C[Se]C,water,298,-0.6502,mol/L,109.02999999999999,0.7867999999999999,0.0,0.0,0.0
CCC(C)(C)Cl,water,298,-2.5106,mol/L,106.59599999999999,2.4138,0.0,0.0,0.0
NC(=O)C(Br)(Br)Br,water,298,-1.2668,mol/L,295.756,1.3102,43.09,1.0,1.0
CC(C)C(C)(C)O,water,298,-0.3708,mol/L,102.17699999999998,1.4133,20.23,1.0,1.0
NC(=O)C(Cl)(Cl)Cl,water,298,-1.0966,mol/L,162.40300000000002,0.8418999999999999,43.09,1.0,1.0
CC(Cl)(Cl)[N+]([O-])=O,water,298,-1.7603,mol/L,143.957,1.4144,43.14,0.0,2.0
CCC(C)(O)C(C)C,water,298,-0.8504,mol/L,116.20399999999997,1.8034,20.23,1.0,1.0
CCC(Cl)(Cl)[N+]([O-])=O,water,298,-1.4996,mol/L,157.984,1.8045000000000002,43.14,0.0,2.0
CCC(CO)(CO)[N+]([O-])=O,water,298,0.8264,mol/L,149.146,-0.6034999999999999,83.6,2.0,4.0
CC(C)(CO)C=O,water,298,-0.3279,mol/L,102.13299999999998,0.20380000000000004,37.3,1.0,2.0
CC(O)(CCl)CCl,water,298,-0.1822,mol/L,143.01300000000003,1.215,20.23,1.0,1.0
CCC(O)(CC)CC,water,298,-0.8399,mol/L,116.204,1.9475,20.23,1.0,1.0
CC(=O)OCC(COC(C)=O)(COC(C)=O)COC(C)=O,water,298,-1.5686,mol/L,304.295,0.2251999999999994,105.20000000000002,0.0,8.0
CCCC(C)(O)CC,water,298,-0.9897,mol/L,116.20399999999998,1.9475,20.23,1.0,1.0
CCCC(C)(O)CCC,water,298,-1.5867,mol/L,130.23099999999997,2.3376,20.23,1.0,1.0
CCCCC(C)(O)CC,water,298,-1.6028,mol/L,130.23099999999997,2.3376,20.23,1.0,1.0
CC1(CCl)CO1,water,298,-0.5504,mol/L,106.552,1.0141,12.53,0.0,1.0
ClC(Br)CBr,water,298,-2.5546,mol/L,222.307,2.341100000000001,0.0,0.0,0.0
CNC(N)=O,water,298,1.1303,mol/L,74.083,-0.7155,55.12,2.0,1.0
COC(C)C,water,298,-0.057,mol/L,74.123,1.0412,9.23,0.0,1.0
NC(=O)C(Br)Br,water,298,-1.0574,mol/L,216.85999999999999,0.5876,43.09,1.0,1.0
CC(Cl)C(Cl)Cl,water,298,-1.8898,mol/L,147.43200000000002,2.4174000000000007,0.0,0.0,0.0
CC(Cl)C(O)=O,water,298,0.9645,mol/L,108.52399999999999,0.6983,37.3,1.0,1.0
CC(Cl)[N+]([O-])=O,water,298,-1.4374,mol/L,109.512,0.8479,43.14,0.0,2.0
Cc1ccc(cc1)[S](=O)(=O)Oc2ccccc2C,water,298,-3.9417,mol/L,262.33,3.0711400000000015,43.370000000000005,0.0,3.0
CCOC(OCC)C(Cl)(Cl)Cl,water,298,-1.6464,mol/L,221.51100000000002,2.755700000000001,18.46,0.0,2.0
CCC(Cl)[N+]([O-])=O,water,298,-1.1887,mol/L,123.53899999999999,1.2379999999999998,43.14,0.0,2.0
CC(C)C(O)C(C)C,water,298,-1.2201,mol/L,116.20399999999998,1.6593,20.23,1.0,1.0
CCC(C(O)=O)C(O)=O,water,298,0.7315,mol/L,132.11499999999998,0.18180000000000007,74.6,2.0,2.0
[O-][N+](=O)c1ccc2CCc3cccc1c23,water,298,-5.3403,mol/L,199.209,2.8466000000000014,43.14,0.0,2.0
OC(=O)c1c(Br)c(O)c(O)c(O)c1Br,water,298,-0.4188,mol/L,327.912,2.0266,97.99000000000001,4.0,4.0
Cc1c(cc(c(O)c1[N+]([O-])=O)[N+]([O-])=O)[N+]([O-])=O,water,298,-2.0434,mol/L,243.13099999999997,1.4252200000000008,149.64999999999998,1.0,7.0
CC(O)Cn1cnc2N(C)C(=O)N(C)C(=O)c12,water,298,0.623,mol/L,238.24699999999999,-1.185499999999999,82.04999999999998,1.0,7.0
OC(=O)c1cccc(c1C(O)=O)[N+]([O-])=O,water,298,-1.0214,mol/L,211.12899999999996,0.9911999999999999,117.74000000000001,2.0,4.0
Oc1ccc(cc1)C(c2ccc(O)cc2)=C3C=CC(=O)C=C3,water,298,-2.3837,mol/L,290.31800000000004,3.594800000000002,57.53,2.0,3.0
CCOC(=O)c1ccccc1C(=O)c2ccccc2,water,298,-3.4053,mol/L,254.285,3.0943000000000014,43.370000000000005,0.0,3.0
Oc1ccc2C(=O)c3ccccc3C(=O)c2c1,water,298,-5.3093,mol/L,224.215,2.1676,54.37,1.0,3.0
COC(=O)c1ccccc1C(=O)c2ccccc2,water,298,-3.4776,mol/L,240.25799999999998,2.704200000000001,43.370000000000005,0.0,3.0
[O-][N+](=O)c1cc2C(=O)NC(=O)Nc2c(c1)[N+]([O-])=O,water,298,-3.2057,mol/L,252.142,0.03279999999999972,151.99999999999997,2.0,6.0
CN1C(=O)C=Cc2ccccc12,water,298,-1.0466,mol/L,159.188,1.5385,22.0,0.0,2.0
CC1=CC(=O)c2ccccc2N1,water,298,-1.2019,mol/L,159.188,1.8365199999999997,32.86,1.0,1.0
Brc1cccc(Br)c1Br,water,298,-5.0402,mol/L,314.80199999999996,3.9741,0.0,0.0,0.0
Cc1c(O)cccc1O,water,298,0.3264,mol/L,124.13899999999997,1.4062199999999998,40.46,2.0,2.0
O[C@H]([C@H](O)[C@H](O)C(O)=O)[C@H](O)C(O)=O,water,298,0.1999,mol/L,210.13799999999998,-3.4008,155.52,6.0,6.0
ClC1C(Cl)C(Cl)C(Cl)C(Cl)C1Cl,water,298,-4.5605,mol/L,290.832,3.644400000000001,0.0,0.0,0.0
CCOC(=O)C(=O)C(=O)OCC,water,298,0.5117,mol/L,174.15199999999996,-0.31830000000000025,69.67,0.0,5.0
CCC(CO)[N+]([O-])=O,water,298,-0.3436,mol/L,119.11999999999999,0.033999999999999975,63.37,1.0,3.0
Oc1c(Cl)cc(Cl)cc1[N+]([O-])=O,water,298,-4.0876,mol/L,207.99999999999997,2.6071999999999997,63.37,1.0,3.0
OC(=O)c1cccc(C=O)c1O,water,298,-2.4423,mol/L,166.13199999999998,0.9028999999999998,74.6,2.0,3.0
OC(=O)c1ccc(cc1[N+]([O-])=O)[N+]([O-])=O,water,298,-1.0665,mol/L,212.11699999999996,1.2011999999999998,123.58000000000001,1.0,5.0
Cc1cccc2cc3ccccc3cc12,water,298,-5.8541,mol/L,192.261,4.301420000000002,0.0,0.0,0.0
[O-][N+](=O)c1ccc2COC(=O)c2c1,water,298,-2.6511,mol/L,179.13099999999997,1.2652,69.44,0.0,4.0
O[C@@H](C(O)=O)c1ccccc1,water,298,-0.1417,mol/L,152.149,0.8046,57.53,2.0,2.0
OC(C(O)=O)c1ccccc1,water,298,0.0545,mol/L,152.149,0.8046,57.53,2.0,2.0
OCc1ccccc1CO,water,298,0.0569,mol/L,138.166,0.6712,40.46,2.0,2.0
OCc1ccccc1C(O)=O,water,298,-1.5508,mol/L,152.14899999999997,0.8771,57.53,2.0,2.0
CCc1ccccc1[N+]([O-])=O,water,298,-2.7993,mol/L,151.16499999999996,2.1572000000000005,43.14,0.0,2.0
OCc1ccccc1[N+]([O-])=O,water,298,-1.4861,mol/L,153.13699999999997,1.0871,63.37,1.0,3.0
Nc1ccc2cc3ccccc3cc2c1,water,298,-5.1722,mol/L,193.249,3.5752000000000015,26.02,1.0,1.0
CCOC(=O)c1cccnc1,water,298,-0.4313,mol/L,151.16499999999996,1.2583,39.19,0.0,3.0
Clc1ccccc1I,water,298,-3.54,mol/L,238.45499999999998,2.9446000000000003,0.0,0.0,0.0
Ic1ccccc1I,water,298,-4.2399,mol/L,329.906,2.8958000000000004,0.0,0.0,0.0
CCOC(=O)N(C)N=O,water,298,-0.5528,mol/L,132.119,0.7561,58.97,0.0,4.0
Brc1ccc(Br)c(Br)c1,water,298,-4.808,mol/L,314.80199999999996,3.974100000000001,0.0,0.0,0.0
CCCCC(N)C(O)=O,water,298,-1.0453,mol/L,131.17499999999998,0.5884999999999998,63.32,2.0,2.0
CCC(Cl)CC,water,298,-2.6307,mol/L,106.59599999999999,2.4138,0.0,0.0,0.0
CCC(O)C=C,water,298,0.0193,mol/L,86.134,0.9433,20.23,1.0,1.0
O=C1CCCN1,water,298,1.07,mol/L,85.10600000000001,-0.10360000000000008,29.1,1.0,1.0
Cn1ccnc1,water,298,1.0856,mol/L,82.106,0.4200999999999999,17.82,0.0,2.0
CCCC(C(O)=O)C(O)=O,water,298,0.6803,mol/L,146.142,0.5719,74.6,2.0,2.0
Oc1cc(O)c(cc1[N+]([O-])=O)[N+]([O-])=O,water,298,-3.4086,mol/L,200.10599999999997,0.9142000000000001,126.74000000000001,2.0,6.0
OC(=O)c1cc(C=O)ccc1O,water,298,-2.6354,mol/L,166.13199999999998,0.9028999999999998,74.6,2.0,3.0
CCCCCC(C(O)=O)C(O)=O,water,298,0.5921,mol/L,174.19599999999997,1.3521,74.6,2.0,2.0
CCCC(O)C(C)C,water,298,-1.3093,mol/L,116.20399999999998,1.8034,20.23,1.0,1.0
NC(CC(O)=O)C(O)=O,water,298,-1.2125,mol/L,133.10299999999998,-1.127,100.62,3.0,3.0
OC(CC(O)=O)C(O)=O,water,298,0.8726,mol/L,134.08699999999996,-1.0934000000000001,94.83000000000001,3.0,3.0
NC(CCC(O)=O)C(O)=O,water,298,-0.8551,mol/L,147.13,-0.7369000000000001,100.62,3.0,3.0
NCc1occc1,water,298,1.0127,mol/L,97.11699999999998,0.7383000000000001,39.16,1.0,2.0
CN(C)c1cccc(c1)[S](O)(=O)=O,water,298,0.2983,mol/L,201.24699999999996,0.9993000000000001,57.61,1.0,3.0
[O-]C(=O)c1oc(Cl)cc1,water,298,-1.7188,mol/L,145.52100000000002,0.29650000000000004,53.269999999999996,0.0,3.0
OC[C@H]1O[C@@H](Oc2ccccc2C=O)[C@H](O)[C@@H](O)[C@@H]1O,water,298,-1.1985,mol/L,284.264,-1.3222000000000005,116.45,4.0,7.0
Cc1ccc(cc1C)C([O-])=O,water,298,-3.0653,mol/L,149.16899999999998,0.6669399999999999,40.129999999999995,0.0,2.0
OCc1cccc(c1)[N+]([O-])=O,water,298,-2.4142,mol/L,153.13699999999997,1.0871,63.37,1.0,3.0
OC(=O)c1ccc(cc1)C#N,water,298,-2.0885,mol/L,147.13299999999998,1.2564799999999998,61.089999999999996,1.0,2.0
OCc1ccc(cc1)[N+]([O-])=O,water,298,-1.8841,mol/L,153.13699999999997,1.0871,63.37,1.0,3.0
CN(C)c1ccc(cc1)C(O)=O,water,298,-3.3979,mol/L,165.19199999999995,1.4507999999999999,40.54,1.0,2.0
OCc1cccc(O)c1,water,298,-0.2678,mol/L,124.13899999999997,0.8844999999999998,40.46,2.0,2.0
O=C(CC#N)Nc1ccccc1,water,298,-2.7275,mol/L,160.17600000000002,1.5387799999999998,52.89,1.0,2.0
OC(=O)Cc1cccc(O)c1,water,298,0.8177,mol/L,152.149,1.0193,57.53,2.0,2.0
CCCCCN(CCCCC)CCCCC,water,298,-4.0326,mol/L,227.43599999999995,4.859000000000005,3.24,0.0,1.0
Cc1ccc(cc1)N=C=S,water,298,-4.7213,mol/L,149.218,2.7293200000000004,12.36,0.0,2.0
Cc1ccc(C=C)cc1,water,298,-3.1232,mol/L,118.17899999999999,2.638020000000001,0.0,0.0,0.0
OCc1ccc(O)cc1,water,298,-1.2678,mol/L,124.13899999999997,0.8845000000000001,40.46,2.0,2.0
COc1ccc(Cl)cc1,water,298,-2.7793,mol/L,142.585,2.3486000000000002,9.23,0.0,1.0
O=Cc1ccc(C=O)cc1,water,298,-2.8265,mol/L,134.134,1.3115999999999999,34.14,0.0,2.0
CCCC(=O)OC,water,298,-0.8331,mol/L,102.13299999999998,0.9595,26.3,0.0,2.0
CC(COC(C)=O)OC(C)=O,water,298,-0.2046,mol/L,160.16899999999998,0.5011000000000001,52.6,0.0,4.0
CCOCCOC(=O)CCCCCCCCC(=O)OCCOCC,water,298,-3.1972,mol/L,346.4640000000001,3.266600000000002,71.06,0.0,6.0
CCOC(=O)CCCCCCCC(=O)OCC,water,298,-2.99,mol/L,244.33099999999993,2.843300000000001,52.60000000000001,0.0,4.0
CCCCC(=O)OC,water,298,-1.3606,mol/L,116.15999999999998,1.3496000000000001,26.3,0.0,2.0
Ic1ccc(I)cc1,water,298,-5.3723,mol/L,329.906,2.8958000000000013,0.0,0.0,0.0
COC(=O)\C=C/C(=O)OC,water,298,-0.2557,mol/L,144.12599999999998,-0.11140000000000017,52.60000000000001,0.0,4.0
CCCCCCC(O)CC,water,298,-2.6608,mol/L,144.25799999999998,2.7277000000000013,20.23,1.0,1.0
CCCCCOC(=O)CC,water,298,-2.2505,mol/L,144.21399999999997,2.1298000000000004,26.3,0.0,2.0
ICCI,water,298,-3.2196,mol/L,281.86199999999997,1.8564,0.0,0.0,0.0
CC(C)(C)CCO,water,298,-1.1308,mol/L,102.17699999999999,1.4149,20.23,1.0,1.0
CC(C)CC(C)(C)O,water,298,-0.9307,mol/L,116.20399999999998,1.8034,20.23,1.0,1.0
CCC(C)(C)NC(N)=O,water,298,-1.0142,mol/L,130.191,0.8433000000000002,55.12,2.0,1.0
CCCCC(C)(C)O,water,298,-1.0784,mol/L,116.20399999999998,1.9475000000000002,20.23,1.0,1.0
CCCCCC(C)(C)O,water,298,-1.7168,mol/L,130.231,2.3376000000000006,20.23,1.0,1.0
CCCC(C)Cl,water,298,-2.3603,mol/L,106.596,2.4138,0.0,0.0,0.0
COCC(C)C,water,298,-0.9007,mol/L,88.15,1.2888000000000002,9.23,0.0,1.0
COCC(O)=O,water,298,1.0454,mol/L,90.07799999999999,-0.2826,46.53,1.0,2.0
OCC[N+]([O-])=O,water,298,1.0406,mol/L,91.06599999999999,-0.7445999999999999,63.37,1.0,3.0
CCOC(C)C,water,298,-0.5607,mol/L,88.15,1.4313,9.23,0.0,1.0
CC(C)OC=O,water,298,-0.6301,mol/L,88.106,0.5678,26.3,0.0,2.0
Clc1cccc(I)c1,water,298,-3.55,mol/L,238.45499999999998,2.9446000000000003,0.0,0.0,0.0
Ic1cccc(I)c1,water,298,-4.57,mol/L,329.906,2.8958000000000004,0.0,0.0,0.0
OC1=CC(=O)C=CN1,water,298,-1.2498,mol/L,111.09999999999998,0.08049999999999996,53.089999999999996,2.0,2.0
OCc1cccc(CO)c1,water,298,-0.2328,mol/L,138.166,0.6712,40.46,2.0,2.0
CC1=CC(=O)NC(=O)N1,water,298,-1.2557,mol/L,126.115,-0.6283800000000002,65.72,2.0,2.0
O=C1C=CNC=C1,water,298,1.0218,mol/L,95.10099999999998,0.37490000000000007,32.86,1.0,1.0
CC(C)CCOCC(O)COCCC(C)C,water,298,-1.3662,mol/L,232.36399999999995,2.4727000000000006,38.69,1.0,3.0
CCOC(=O)CCCCC(O)=O,water,298,-0.3602,mol/L,174.196,1.1945000000000001,63.6,1.0,3.0
CC(C)CCCO,water,298,-1.1286,mol/L,102.17699999999999,1.4149,20.23,1.0,1.0
CC\C=C/C(O)=O,water,298,-0.2019,mol/L,100.11699999999999,1.0372000000000001,37.3,1.0,1.0
CCCOC(C)C,water,298,-1.3373,mol/L,102.17699999999998,1.8214000000000001,9.23,0.0,1.0
CCCO[N+]([O-])=O,water,298,-1.5044,mol/L,105.09299999999999,0.6047,52.37,0.0,3.0
OCCCBr,water,298,0.0093,mol/L,138.992,0.7637,20.23,1.0,1.0
OCCCCl,water,298,0.4223,mol/L,94.541,0.6075999999999999,20.23,1.0,1.0
COCCCl,water,298,-0.0725,mol/L,94.541,0.8716,9.23,0.0,1.0
CC(C)CCC(C)O,water,298,-1.375,mol/L,116.20399999999998,1.8034,20.23,1.0,1.0
CC(C)CCOCC(O)CO,water,298,-1.2101,mol/L,162.22899999999998,0.40229999999999994,49.69,2.0,3.0
COC(=O)CCCCC(=O)OC,water,298,-1.4629,mol/L,174.196,0.8927999999999998,52.60000000000001,0.0,4.0
CCCCOC,water,298,-0.9907,mol/L,88.14999999999999,1.4329,9.23,0.0,1.0
CCCOCC,water,298,-0.6806,mol/L,88.14999999999999,1.4329,9.23,0.0,1.0
CCCCCOC(C)=O,water,298,-1.8841,mol/L,130.18699999999998,1.7397,26.3,0.0,2.0
CC(=O)OCCCOC(C)=O,water,298,-0.2046,mol/L,160.169,0.5026999999999999,52.6,0.0,4.0
CCCCCC#C,water,298,-3.0099,mol/L,96.17299999999999,2.1999000000000004,0.0,0.0,0.0
C1CCC=CCC1,water,298,-3.1635,mol/L,96.173,2.5067000000000004,0.0,0.0,0.0
CCCCCCC#C,water,298,-3.662,mol/L,110.19999999999999,2.5900000000000007,0.0,0.0,0.0