Solute,Solvent,Temperature_K,Solubility,Units,MW,LogP,TPSA,HBD,HBA
[O--].[O--].[O--].[Sb+3].[Sb+3],water,298,-4.17019766,mol/L,291.517,-1.118,85.5,0.0,0.0
C[Si](C)(C)C,water,298,-3.653340518,mol/L,88.22599999999998,1.9544,0.0,0.0,0.0
Oc1cc(Cl)ccc1Oc2ccc(Cl)cc2,water,298,-4.116675847,mol/L,255.1,4.491300000000002,29.46,1.0,2.0
Clc1cc(c(Cl)cc1c2[nH]c3ccc4C(=O)c5ccccc5C(=O)c4c3n2)c6[nH]c7ccc8C(=O)c9ccccc9C(=O)c8c7n6,water,298,-4.524775941,mol/L,639.4540000000002,7.630800000000004,125.64,2.0,6.0
CC(CCOC(C)=O)CC(C)(C)C,water,298,-3.989167832,mol/L,186.29499999999996,3.0119000000000016,26.3,0.0,2.0
CCCCCCCCCCCCCCCCN(C)C,water,298,-4.151832563,mol/L,269.51699999999994,6.029300000000006,3.24,0.0,1.0
ClC(=O)c1ccc(cc1)C(Cl)=O,water,298,-4.028793779,mol/L,203.02399999999997,2.4446000000000003,34.14,0.0,2.0
CC(=C)C(=O)OCC1CCCO1,water,298,-0.952455004,mol/L,170.20799999999997,1.2847,35.53,0.0,3.0
C[C@]12CC[C@H]3[C@@H](CCC4=CC(=O)CC[C@H]34)[C@@H]1CCC2=O,water,298,-3.156500662,mol/L,272.388,3.697300000000002,34.14,0.0,2.0
CC(=C)C(=O)OCc1ccccc1,water,298,-2.968204541,mol/L,176.215,2.3059000000000003,26.3,0.0,2.0
[O-][N+](=O)c1ccc(Cl)cc1Cl,water,298,-1.009145641,mol/L,192.00099999999998,2.9016,43.14,0.0,2.0
CCOC(=O)OCC,water,298,-0.798209708,mol/L,118.13199999999999,1.1794,35.53,0.0,3.0
C[C@]12CC[C@H]3[C@@H](CCC4=CC(=O)CC[C@H]34)[C@@H]1CCC2=O,water,298,-3.160845355,mol/L,272.388,3.697300000000002,34.14,0.0,2.0
C/C=C/C(=O)C1=C(C)C=CCC1(C)C,water,298,-3.005248988,mol/L,190.28599999999997,3.4342000000000024,17.07,0.0,1.0
[O-][N+](=O)c1ccc(Cl)cc1Cl,water,298,-3.009145641,mol/L,192.00099999999998,2.9016,43.14,0.0,2.0
CC(=C)[C@H]1CC=C(C)C(=O)C1,water,298,-1.90265366,mol/L,150.22099999999998,2.4879000000000007,17.07,0.0,1.0
CCCCCCCC[P](O)(O)=O,water,298,-3.014809552,mol/L,194.211,2.5246000000000013,57.53,2.0,1.0
C[C@]12CCC(=O)C=C1CC[C@@H]3[C@@H]2CC[C@@]4(C)[C@H]3C(O)CC4=O,water,298,-2.213096942,mol/L,302.41400000000004,3.058200000000001,54.37,1.0,3.0
COc1cc(Cl)c(OC)cc1N,water,298,-3.006121292,mol/L,187.626,1.9393999999999998,44.480000000000004,1.0,3.0
[Pb],water,298,-3.049218023,mol/L,207.2,-0.3808,0.0,0.0,0.0
[OH-].[OH-].[Ca++],water,298,-1.603798487,mol/L,74.09200000000001,-0.7343999999999999,60.0,0.0,2.0
CCCC(=O)OCCC(C)C,water,298,-2.932852123,mol/L,158.24099999999999,2.375800000000001,26.3,0.0,2.0
O[S](=O)(=O)CCCNC1CCCCC1,water,298,-3.080206763,mol/L,221.32199999999995,1.1865999999999997,66.39999999999999,2.0,3.0
NC(CCCN=C(N)N)C(O)=O,water,298,0.019013265,mol/L,174.204,-1.548099999999999,127.72,4.0,3.0
C=CCOC(=O)c1ccccc1C(=O)OCC=C,water,298,-3.131326014,mol/L,246.26199999999994,2.3722000000000003,52.60000000000001,0.0,4.0
CCCCNC(=O)OCC#CI,water,298,-3.188778643,mol/L,281.09299999999996,1.9086,38.33,1.0,2.0
CCCCC/C(C=O)=C/c1ccccc1,water,298,-3.046658418,mol/L,202.297,3.8492000000000033,17.07,0.0,1.0
Cc1ccccc1C,water,298,-2.768315061,mol/L,106.16799999999999,2.30344,0.0,0.0,0.0
Cc1cccc(C)c1,water,298,-2.768315061,mol/L,106.16799999999999,2.30344,0.0,0.0,0.0
Cc1ccc(C)cc1,water,298,-2.768315061,mol/L,106.16799999999999,2.30344,0.0,0.0,0.0
ClCCCBr,water,298,-1.940151412,mol/L,157.438,2.0102,0.0,0.0,0.0
OC(O)C(Cl)(Cl)Cl,water,298,1.037167298,mol/L,165.403,0.6672999999999998,40.46,2.0,2.0
[Na+].[Na+].COc1cc(c(C)cc1N\N=C2\C(=O)C=Cc3cc(ccc23)[S]([O-])(=O)=O)[S]([O-])(=O)=O,water,298,-0.440585514,mol/L,496.43000000000023,-4.768079999999992,165.08999999999997,1.0,10.0
OC(=O)c1cccnc1,water,298,0.164975646,mol/L,123.11099999999998,0.7797999999999999,50.19,1.0,2.0
OC(=O)c1ccccc1O,water,298,-1.884990353,mol/L,138.12199999999999,1.0903999999999998,57.53,2.0,2.0
Cc1ccc(N)cc1[S](O)(=O)=O,water,298,-2.017079736,mol/L,187.22,0.82392,80.39,2.0,3.0
OC(=O)c1cc(O)cc(c1)C(O)=O,water,298,-2.005111367,mol/L,182.13099999999997,0.7886,94.83000000000001,3.0,3.0
[Na+].[Na+].[O-][S](=O)(=O)c1cc(Nc2nc(Nc3ccccc3)nc(n2)N4CCOCC4)ccc1/C=C/c5ccc(Nc6nc(Nc7ccccc7)nc(n6)N8CCOCC8)cc5[S]([O-])(=O)=O,water,298,-2.710838239,mol/L,924.9339999999997,-1.3091999999999886,264.8,4.0,20.0
CC(C)OC(=O)CCCCC(=O)OC(C)C,water,298,-3.107028976,mol/L,230.30399999999997,2.45,52.60000000000001,0.0,4.0
CCCCCC1(C)CCC(C)(C)C1=O,water,298,-4.016533711,mol/L,196.33399999999997,3.962100000000003,17.07,0.0,1.0
OC1CCCCCCCCCCC1,water,298,-3.989117726,mol/L,184.32299999999995,3.652000000000003,20.23,1.0,1.0
OCCC(F)(F)C(F)(F)C(F)(F)C(F)(F)C(F)(F)C(F)(F)F,water,298,-4.287064023,mol/L,364.10099999999994,4.107600000000001,20.23,1.0,1.0
CC1(C)CNCC(C)(C)C1OC(=O)CCCCCCCCC(=O)OC2C(C)(C)CNCC2(C)C,water,298,-4.40774699,mol/L,480.7340000000003,5.242000000000004,76.66,2.0,6.0
CC(CCCC(C)(C)OC(C)=O)C=C,water,298,-4.030164126,mol/L,198.30599999999998,3.320500000000002,26.3,0.0,2.0
[Ca++].[O-][Mo]([O-])(=O)=O,water,298,-4.03553506,mol/L,200.01399999999998,-2.9989,80.25999999999999,0.0,4.0
CC(C)COC(=O)C1CCCCC1C(=O)OCC(C)C,water,298,-4.19123514,mol/L,284.39599999999996,3.191200000000002,52.60000000000001,0.0,4.0
[Zn++].CCCCCCCCCc1cc2ccccc2c(c1CCCCCCCCC)[S]([O-])(=O)=O.CCCCCCCCCc3cc4ccccc4c(c3CCCCCCCCC)[S]([O-])(=O)=O,water,298,-4.730669398,mol/L,984.8219999999992,16.657699999999966,114.39999999999998,0.0,6.0
CC1CC(CC(C)(C)C1)OC(=O)C=C,water,298,-4.030447085,mol/L,196.29,2.9304000000000014,26.3,0.0,2.0
O=C(C1CCCCC1)c2ccccc2,water,298,-4.014709735,mol/L,188.27000000000004,3.449600000000002,17.07,0.0,1.0
CC(C)COc1ccc2ccccc2c1,water,298,-4.043961176,mol/L,200.281,3.8746000000000027,9.23,0.0,1.0
[Na+].CC(=O)Nc1cccc(Nc2cc(c(N)c3C(=O)c4ccccc4C(=O)c23)[S]([O-])(=O)=O)c1,water,298,-4.417588208,mol/L,473.44200000000023,-0.3457000000000001,158.48999999999998,3.0,8.0
ClCC(CCl)O[P](=O)(OC(CCl)CCl)OC(CCl)CCl,water,298,-4.376704974,mol/L,430.90700000000004,4.682900000000003,44.760000000000005,0.0,4.0
Clc1cccc(Cl)c1Cl,water,298,-4.003482074,mol/L,181.44899999999998,3.6468000000000007,0.0,0.0,0.0
[Ca++].CC(=O)C(N=Nc1ccc(cc1[N+]([O-])=O)[S]([O-])(=O)=O)C(=O)Nc2ccccc2.CC(=O)C(N=Nc3ccc(cc3[N+]([O-])=O)[S]([O-])(=O)=O)C(=O)Nc4ccccc4,water,298,-4.674562122,mol/L,850.8140000000001,3.977000000000002,342.4599999999999,2.0,18.0
COC(=O)c1c(C)cc(O)c(C)c1O,water,298,-4.037430925,mol/L,196.202,1.5012399999999997,66.76,2.0,4.0
O(c1ccccc1)c2ccccc2,water,298,-3.975715118,mol/L,170.211,3.478900000000002,9.23,0.0,1.0
[Na+].[I-],water,298,1.07779604,mol/L,149.894,-5.992,0.0,0.0,0.0
[H+].[H+].[Cl-].[Cl-].Nc1ccc(cc1Cl)c2ccc(N)c(Cl)c2,water,298,-3.26286953,mol/L,326.0540000000001,-1.9421999999999982,52.04,2.0,2.0
CC(C)C(=O)OCCc1ccccc1,water,298,-3.035911154,mol/L,192.258,2.4283,26.3,0.0,2.0
CC(C)C1(O)CCC(=CC1)C,water,298,-1.94099707,mol/L,154.25299999999996,2.5037000000000003,20.23,1.0,1.0
F[B-](F)(F)F.F[B-](F)(F)F.F[N+]12CC[N+](CCl)(CC1)CC2,water,298,-0.303811902,mol/L,354.26200000000017,3.328000000000002,0.0,0.0,0.0
COc1ccc(OC)c(c1)[N+]([O-])=O,water,298,-3.01732508,mol/L,183.16299999999998,1.6119999999999999,61.6,0.0,4.0
CCCCNC(=O)OCC#CI,water,298,-3.203337363,mol/L,281.09299999999996,1.9086,38.33,1.0,2.0
OC(=O)Cc1ccc(O)cc1,water,298,-0.944222999,mol/L,152.149,1.0192999999999999,57.53,2.0,2.0
[OH-].[OH-].[Ca++],water,298,-1.632982219,mol/L,74.09200000000001,-0.7343999999999999,60.0,0.0,2.0
ClCCOCCCl,water,298,-0.91984707,mol/L,143.013,1.4806,9.23,0.0,1.0
[O-][N+](=O)C1=NC(=O)NN1,water,298,-0.87862532,mol/L,130.06300000000002,-0.9938000000000002,104.67999999999998,2.0,4.0
Cc1cc2NC(=O)Nc2cc1N,water,298,-1.977138482,mol/L,163.18,0.74682,74.67,3.0,2.0
[O-][N+](=O)c1ccc(Cl)cc1Cl,water,298,-3.047775044,mol/L,192.00099999999998,2.9016,43.14,0.0,2.0
CC(=O)c1cccc(N)c1,water,298,-0.896856644,mol/L,135.166,1.4714,43.09,1.0,2.0
Cc1ccccc1C,water,298,-2.792997526,mol/L,106.16799999999999,2.30344,0.0,0.0,0.0
Cc1cccc(C)c1,water,298,-2.792997526,mol/L,106.16799999999999,2.30344,0.0,0.0,0.0
Cc1ccc(C)cc1,water,298,-2.792997526,mol/L,106.16799999999999,2.30344,0.0,0.0,0.0
CC(C)(C)OOC(C)(C)C,water,298,-2.93204037,mol/L,146.23,2.531600000000001,18.46,0.0,2.0
CCOC(=O)\C=C\c1ccccc1,water,298,-3.013046764,mol/L,176.215,2.2629,26.3,0.0,2.0
[Na+].Cc1ccc(Nc2ccc(O)c3C(=O)c4ccccc4C(=O)c23)c(c1)[S]([O-])(=O)=O,water,298,-2.402393281,mol/L,431.4010000000002,0.12772000000000017,123.6,2.0,7.0
O=C1NSc2ccccc12,water,298,-1.947289546,mol/L,151.18999999999997,1.5896,32.86,1.0,2.0
CCN(CC)CC,water,298,0.22529845,mol/L,101.193,1.3481,3.24,0.0,1.0
Cc1ccccc1C,water,298,-2.794269253,mol/L,106.16799999999999,2.30344,0.0,0.0,0.0
Cc1cccc(C)c1,water,298,-2.794269253,mol/L,106.16799999999999,2.30344,0.0,0.0,0.0
Cc1ccc(C)cc1,water,298,-2.794269253,mol/L,106.16799999999999,2.30344,0.0,0.0,0.0
CCOc1ccc2NC(C)(C)C=C(C)c2c1,water,298,-3.106634787,mol/L,217.31199999999998,3.692700000000002,21.259999999999998,1.0,2.0
CSc1ccc(cc1)C(=O)C(C)(C)N2CCOCC2,water,298,-4.193381143,mol/L,279.405,2.702000000000001,29.540000000000003,0.0,4.0
[Na+].CC(=O)Nc1cccc(Nc2cc(c(N)c3C(=O)c4ccccc4C(=O)c23)[S]([O-])(=O)=O)c1,water,298,-4.422413752,mol/L,473.44200000000023,-0.3457000000000001,158.48999999999998,3.0,8.0
CC1(C)C2CCC3(C2)C1C(=O)CCC3(C)C,water,298,-4.097612213,mol/L,220.35599999999997,3.818000000000003,17.07,0.0,1.0
CCCCC(CC)C(=O)OOC(C)(C)CC,water,298,-4.116871778,mol/L,230.34799999999996,3.8662000000000027,35.53,0.0,3.0
CCC(C)c1ccccc1,water,298,-3.882311038,mol/L,134.22199999999998,3.2001000000000017,0.0,0.0,0.0
C[C@]12CC[C@H]3[C@@H](CC=C4C[C@@H](O)CC[C@]34C)[C@@H]1CCC2=O,water,298,-4.217003887,mol/L,288.43100000000004,3.8792000000000026,37.3,1.0,2.0
COC1(CCCCCCCCCCC1)OC,water,298,-4.125654352,mol/L,228.37599999999995,4.280200000000004,18.46,0.0,2.0
CCc1ccc(CC)cc1,water,298,-3.897374784,mol/L,134.22199999999998,2.811400000000001,0.0,0.0,0.0
CC(=O)/C=C/C1=C(C)CCCC1(C)C,water,298,-3.055521845,mol/L,192.30199999999996,3.6582000000000026,17.07,0.0,1.0
FC(F)=C(F)C(F)(F)F,water,298,-2.948008448,mol/L,150.021,2.6263,0.0,0.0,0.0
CCc1ccccc1,water,298,-2.798106932,mol/L,106.16799999999996,2.2490000000000006,0.0,0.0,0.0
[OH-].[OH-].[Ca++],water,298,-1.644462036,mol/L,74.09200000000001,-0.7343999999999999,60.0,0.0,2.0
CCCCNC(=O)OCC#CI,water,298,-3.223540749,mol/L,281.09299999999996,1.9086,38.33,1.0,2.0
[O-][N+](=O)c1ccc(Cl)cc1C(F)(F)F,water,298,-3.127939326,mol/L,225.55299999999994,3.2670000000000003,43.14,0.0,2.0
S=C1NN=C(SSC2=NNC(=S)S2)S1,water,298,-3.252213315,mol/L,298.49,3.5141799999999996,57.36,2.0,8.0
CCCCCCCC(C)=O,water,298,-2.930311379,mol/L,142.242,2.935900000000002,17.07,0.0,1.0
Cc1ccc(cc1[N+]([O-])=O)[N+]([O-])=O,water,298,-3.040285322,mol/L,182.135,1.8114200000000005,86.28,0.0,4.0
[Zn++].CC(C)CO[P]([S-])(=S)OCC(C)C.CC(C)CO[P]([S-])(=S)OCC(C)C,water,298,-2.519248335,mol/L,548.0660000000003,6.203500000000007,36.92,0.0,8.0
FC(F)=C,water,298,-2.588926688,mol/L,64.034,1.3966,0.0,0.0,0.0
Oc1cccc2c(O)cccc12,water,298,-2.987102654,mol/L,160.172,2.2509999999999994,40.46,2.0,2.0
OCCCNc1ccc(O)cc1[N+]([O-])=O,water,298,-2.11058971,mol/L,212.20499999999998,1.0946999999999996,95.63,3.0,5.0
O=C1OC(=O)c2ccccc12,water,298,-0.955761059,mol/L,148.11699999999996,0.9972,43.370000000000005,0.0,3.0
CCCCCC1CC(=O)C=C(C)C1C(=O)OCC,water,298,-3.187166345,mol/L,252.35399999999996,3.2813000000000017,43.370000000000005,0.0,3.0
O=C1NSc2ccccc12,water,298,-1.967069106,mol/L,151.18999999999997,1.5896,32.86,1.0,2.0
CSc1cc(SC)c(N)c(C)c1N,water,298,-3.121626708,mol/L,214.35899999999995,2.6032200000000003,52.04,2.0,4.0
[Cl-].C[N+](C)(C)c1ccc2C=CC(=O)C(=N/Nc3ccc(N)c(c3)[N+]([O-])=O)\c2c1,water,298,-1.39724242,mol/L,401.85400000000016,-0.21019999999999633,110.62,2.0,6.0
Cc1ccccc1C,water,298,-2.81916776,mol/L,106.16799999999999,2.30344,0.0,0.0,0.0
Cc1cccc(C)c1,water,298,-2.81916776,mol/L,106.16799999999999,2.30344,0.0,0.0,0.0
Cc1ccc(C)cc1,water,298,-2.81916776,mol/L,106.16799999999999,2.30344,0.0,0.0,0.0
[OH-].[Cr+3].CCCCC(CC)COCCCN.CC(=O)\C(=N/Nc1cc(cc(c1[O-])[S]([O-])(=O)=O)[N+]([O-])=O)C(=O)[N-]c2ccccc2.[H+],water,298,-3.623563241,mol/L,676.6890000000002,3.6628000000000016,261.28,2.0,13.0
O=C1NC(=O)C2=C1CCCC2,water,298,-1.974517726,mol/L,151.16499999999996,0.5133999999999999,46.17,1.0,2.0
OC(=O)Cc1ccc(O)cc1,water,298,0.02185088,mol/L,152.149,1.0192999999999999,57.53,2.0,2.0
CC(C)C(=O)OCCc1ccccc1,water,298,-3.079764438,mol/L,192.258,2.4283,26.3,0.0,2.0
CC(=O)/C=C/C1=C(C)CCCC1(C)C,water,298,-3.079863818,mol/L,192.30199999999996,3.6582000000000026,17.07,0.0,1.0
C1CC=CC1,water,298,-2.629148281,mol/L,68.11900000000001,1.7265,0.0,0.0,0.0
CCCCCCC(C)(C)S,water,298,-3.977117253,mol/L,160.326,3.6652000000000027,0.0,1.0,1.0
CCCCCCCCCCN(C)C,water,298,-4.045287835,mol/L,185.355,3.6887000000000025,3.24,0.0,1.0
CCOC(=O)CCS[P](=S)(OC(C)C)OC(C)C,water,298,-4.274778498,mol/L,314.40900000000005,3.7473000000000027,44.760000000000005,0.0,6.0
CCCCCCC(C)(C)S,water,298,-3.984895869,mol/L,160.326,3.6652000000000027,0.0,1.0,1.0
O=CCC\C=C1/CC2CC1C3CCCC23,water,298,-4.090187913,mol/L,204.31299999999996,3.3480000000000025,17.07,0.0,1.0
CCCCCCC(C)(C)S,water,298,-3.990160109,mol/L,160.326,3.6652000000000027,0.0,1.0,1.0
CC(CCOC=O)CCC=C(C)C,water,298,-4.055960832,mol/L,184.27899999999997,2.9320000000000013,26.3,0.0,2.0
CCCS[P](=O)(OCC)Oc1ccc(Br)cc1Cl,water,298,-4.365622838,mol/L,373.63599999999997,5.7691000000000034,35.53,0.0,4.0
[Zn++].CCCCCCCCCc1cc2ccccc2c(c1CCCCCCCCC)[S]([O-])(=O)=O.CCCCCCCCCc3cc4ccccc4c(c3CCCCCCCCC)[S]([O-])(=O)=O,water,298,-4.788424219,mol/L,984.8219999999992,16.657699999999966,114.39999999999998,0.0,6.0
CC(=O)C(\C)=C/C1C(=CCCC1(C)C)C,water,298,-4.110440291,mol/L,206.32899999999992,3.904200000000003,17.07,0.0,1.0
Clc1cccc(Cl)c1Cl,water,298,-4.054634596,mol/L,181.44899999999998,3.6468000000000007,0.0,0.0,0.0
O=C1CCCCCCCCCCCC(=O)OCCO1,water,298,-4.227836912,mol/L,270.3689999999999,3.377500000000002,52.60000000000001,0.0,4.0
CCCCCCCCC(C)C=O,water,298,-4.027084465,mol/L,170.296,3.5720000000000027,17.07,0.0,1.0
COC(=O)C1CC(=O)C(CC1=O)C(=O)OC,water,298,-4.154195657,mol/L,228.19999999999996,-0.5032000000000003,86.74000000000001,0.0,6.0
CC1CO1.CC(C)(c2ccc(O)cc2)c3ccc(O)cc3.ClCC4CO4,water,298,-4.374400038,mol/L,378.8960000000001,4.452800000000004,65.52,2.0,4.0
[Zn++].[O-][Se]([O-])=O,water,298,-4.079965434,mol/L,192.34699999999998,-2.8801,63.19,0.0,3.0
CN1COCN=C1N[N+]([O-])=O,water,298,-1.002292328,mol/L,160.13299999999998,-0.9993000000000001,80.0,1.0,5.0
OCC1OC(C(O)C1O)n2cnc3C(=O)N=CNc23,water,298,-1.229848644,mol/L,268.22900000000004,-2.2688999999999995,133.49,4.0,8.0
Cc1ccc(C)c(O)c1C,water,298,-1.935500888,mol/L,136.194,2.3174600000000005,20.23,1.0,1.0
FCF,water,298,-1.520295741,mol/L,52.022999999999996,0.8829,0.0,0.0,0.0
Cc1ccccc1C,water,298,-2.832869038,mol/L,106.16799999999999,2.30344,0.0,0.0,0.0
Cc1cccc(C)c1,water,298,-2.832869038,mol/L,106.16799999999999,2.30344,0.0,0.0,0.0
Cc1ccc(C)cc1,water,298,-2.832869038,mol/L,106.16799999999999,2.30344,0.0,0.0,0.0
C1CCCC1,water,298,-2.652810203,mol/L,70.135,1.9505000000000001,0.0,0.0,0.0
CCCCCCCC(=O)NCC(O)=O,water,298,-2.111537593,mol/L,201.266,1.5477,66.4,2.0,2.0
CC(=O)OC1C(C)(C)C2CCC1(C)C2,water,298,-3.874596884,mol/L,196.28999999999994,2.7643000000000013,26.3,0.0,2.0
O=[Si]=O,water,298,-3.602667578,mol/L,60.084,-0.6184000000000001,34.14,0.0,2.0
[OH-].[Cr+3].CCCCC(CC)COCCCN.CC(=O)\C(=N/Nc1cc(cc(c1[O-])[S]([O-])(=O)=O)[N+]([O-])=O)C(=O)[N-]c2ccccc2.[H+],water,298,-3.648545529,mol/L,676.6890000000002,3.6628000000000016,261.28,2.0,13.0
OC(=O)[C@@H](NC(=O)OCc1ccccc1)C2CCCCC2,water,298,-3.285433603,mol/L,291.3470000000001,2.9463000000000017,75.63000000000001,2.0,3.0
CC1=C(/C=C/C(C)(O)C=C)C(C)(C)CCC1,water,298,-3.164147933,mol/L,220.3559999999999,4.006200000000003,20.23,1.0,1.0
CCCCCC#CC(=O)OC,water,298,-3.009132774,mol/L,154.20899999999997,1.7431,26.3,0.0,2.0
Cc1cccc(N)c1,water,298,-0.853867332,mol/L,107.156,1.5772199999999998,26.02,1.0,1.0
[Mn++].[O-]P=O.[O-]P=O,water,298,-0.081304092,mol/L,180.88199999999998,-0.8957000000000002,80.25999999999999,0.0,4.0
Cc1cccc(N)c1,water,298,-0.853925235,mol/L,107.156,1.5772199999999998,26.02,1.0,1.0
COC=C,water,298,-0.587935349,mol/L,58.080000000000005,0.7763,9.23,0.0,1.0
CCN(CC)CC,water,298,-0.829059212,mol/L,101.193,1.3481,3.24,0.0,1.0
CC(Cl)(Cl)Cl,water,298,-1.949080848,mol/L,133.405,2.376500000000001,0.0,0.0,0.0
CCN(CC)c1cccc(O)c1,water,298,-2.042013414,mol/L,165.236,2.2384000000000004,23.47,1.0,2.0
O=C1NC(=O)NC(=O)N1,water,298,-1.934750875,mol/L,129.075,-2.2485000000000004,98.57999999999998,3.0,3.0
CCCCCC(O)CC,water,298,-1.938623116,mol/L,130.23099999999997,2.3376,20.23,1.0,1.0
Cc1cccc(c1C)[N+]([O-])=O,water,298,-3.003359989,mol/L,151.165,2.21164,43.14,0.0,2.0
Cc1ccc(cc1[N+]([O-])=O)[N+]([O-])=O,water,298,-3.084302151,mol/L,182.135,1.8114200000000005,86.28,0.0,4.0
CCCCCCCCCC(O)=O,water,298,-3.060113353,mol/L,172.268,3.2117000000000013,37.3,1.0,1.0
Oc1ccccc1C(=O)Oc2ccccc2,water,298,-3.154768756,mol/L,214.22,2.6114000000000006,46.53,1.0,3.0
ClC(Cl)=C(Cl)Cl,water,298,-3.043582317,mol/L,165.834,3.0682,0.0,0.0,0.0
COc1ccc2cc(ccc2c1)C(C)C(O)=O,water,298,-4.160827034,mol/L,230.26299999999998,3.036500000000001,46.53,1.0,2.0
CC(CCOC(C)=O)CCC=C(C)C,water,298,-4.09593873,mol/L,198.30599999999995,3.3221000000000025,26.3,0.0,2.0
FC(F)(F)C(F)(F)C(F)(F)C(F)(F)C=C,water,298,-4.197937601,mol/L,246.07199999999997,3.6406,0.0,0.0,0.0
O=C(Cc1ccccc1)OCCc2ccccc2,water,298,-4.188747793,mol/L,240.30199999999996,3.0150000000000015,26.3,0.0,2.0
[Zn++].CCCCCCCCCc1cc2ccccc2c(c1CCCCCCCCC)[S]([O-])(=O)=O.CCCCCCCCCc3cc4ccccc4c(c3CCCCCCCCC)[S]([O-])(=O)=O,water,298,-4.814093277,mol/L,984.8219999999992,16.657699999999966,114.39999999999998,0.0,6.0
CCC(COCC(CC)(COC(=O)C=C)COC(=O)C=C)(COC(=O)C=C)COC(=O)C=C,water,298,-4.492785524,mol/L,466.5270000000003,2.712600000000001,114.43,0.0,9.0
ClC(=O)c1ccc(cc1)C(Cl)=O,water,298,-4.131456121,mol/L,203.02399999999997,2.4446000000000003,34.14,0.0,2.0
C=CC(=O)OCCN1C(=O)N(CCOC(=O)C=C)C(=O)N(CCOC(=O)C=C)C1=O,water,298,-2.451419462,mol/L,423.37800000000027,-1.640699999999996,144.9,0.0,12.0
COc1ccc(C=O)cc1OC,water,298,-1.046974162,mol/L,166.17599999999996,1.5162999999999998,35.53,0.0,3.0
CCCCCCCC(O)=O.OCC(O)CO,water,298,-3.200000781,mol/L,236.308,0.7633999999999999,97.99000000000001,4.0,4.0
CC(C)c1ccc(cc1)C#N,water,298,-2.988795303,mol/L,145.20499999999996,2.681680000000001,23.79,0.0,1.0
C=CCOC(=O)c1ccccc1C(=O)OCC=C,water,298,-3.221135687,mol/L,246.26199999999994,2.3722000000000003,52.60000000000001,0.0,4.0
NC(Nc1ccccc1)=Nc2ccccc2,water,298,-2.157516386,mol/L,211.26799999999997,2.7449000000000012,50.41,2.0,1.0
CC(C)(C)S,water,298,-1.787845868,mol/L,90.19099999999999,1.7147,0.0,1.0,1.0
OCCCNc1ccc(O)cc1[N+]([O-])=O,water,298,-2.160917988,mol/L,212.20499999999998,1.0946999999999996,95.63,3.0,5.0
Cc1ccccc1C,water,298,-2.86164078,mol/L,106.16799999999999,2.30344,0.0,0.0,0.0
Cc1cccc(C)c1,water,298,-2.86164078,mol/L,106.16799999999999,2.30344,0.0,0.0,0.0
Cc1ccc(C)cc1,water,298,-2.86164078,mol/L,106.16799999999999,2.30344,0.0,0.0,0.0
CC1CC(O)CC(C)(C)C1,water,298,-1.991659848,mol/L,142.24199999999996,2.1935000000000002,20.23,1.0,1.0
CN(C)c1ccccc1,water,298,-1.922073697,mol/L,121.18299999999995,1.7526,3.24,0.0,1.0
COc1cc(c(OC)cc1Cl)[N+]([O-])=O,water,298,-3.179312365,mol/L,217.60799999999998,2.2654000000000005,61.6,0.0,4.0
[K+].[I-],water,298,0.935222717,mol/L,166.002,-5.992,0.0,0.0,0.0
[H+].[H+].[Cl-].[Cl-].CCCCCCCCN=C1C=CN(CCCCCCCCCCN2C=CC(C=C2)=NCCCCCCCC)C=C1,water,298,-1.642786266,mol/L,623.8420000000001,3.8660000000000068,34.58,0.0,4.0
O=C/C=C/c1ccccc1,water,298,-1.968818258,mol/L,132.16199999999998,1.8987,17.07,0.0,1.0
CC(C)C(=O)OCCc1ccccc1,water,298,-3.131596076,mol/L,192.258,2.4283,26.3,0.0,2.0
CN(CCO)[S](=O)(=O)C(F)(F)C(F)(F)C(F)(F)C(F)(F)F,water,298,-3.403685043,mol/L,357.1939999999999,1.6660000000000001,57.61,1.0,3.0
CC12CCCC(C)(CC1)C2=NO,water,298,-3.074152207,mol/L,167.252,2.8069000000000006,32.59,1.0,2.0
CC(=O)Nc1ccc(O)cc1,water,298,-1.033323213,mol/L,151.165,1.3505999999999998,49.33,2.0,2.0
CCCCOC(C)=O,water,298,-0.918928568,mol/L,116.15999999999998,1.3496000000000001,26.3,0.0,2.0
CCCCCCN,water,298,-0.859022436,mol/L,101.19300000000001,1.5253999999999999,26.02,1.0,1.0
CC(F)(F)Cl,water,298,-1.856016419,mol/L,100.495,1.8379,0.0,0.0,0.0
Nc1cc(cc(c1O)[N+]([O-])=O)[N+]([O-])=O,water,298,-2.15299121,mol/L,199.12199999999999,0.7907999999999997,132.53,2.0,6.0