Solute,Solvent,Temperature_K,Solubility,Units,MW,LogP,TPSA,HBD,HBA
[Na+].[Na+].[Na+].[O-][P]1(=O)O[P]([O-])(=O)O[P]([O-])(=O)O1,water,298,-0.062309467,mol/L,305.88300000000004,-10.533000000000001,148.08,0.0,9.0
Nc1[nH]ncn1,water,298,0.496900894,mol/L,84.082,-0.6131000000000004,67.59,2.0,3.0
O=[Se]=O,water,298,1.364774503,mol/L,110.95799999999998,-0.6184000000000001,34.14,0.0,2.0
C1CCOCOC1,water,298,0.41078966,mol/L,102.133,0.7709,18.46,0.0,2.0
O.O.[Cl-].[Cl-].[Ba++],water,298,0.032096284,mol/L,244.264,-8.0222,63.0,0.0,0.0
[Na+].[Na+].[Na+].[Na+].[Na+].Nc1nc(Cl)nc(Nc2ccc(c(N\N=C/3C(=O)c4c(N)c(N=Nc5cc(ccc5[S]([O-])(=O)=O)[S]([O-])(=O)=O)c(cc4C=C3[S]([O-])(=O)=O)[S]([O-])(=O)=O)c2)[S]([O-])(=O)=O)n1,water,298,-0.590800584,mol/L,1021.1790000000005,-14.964700000000004,454.91999999999996,4.0,26.0
Nc1[nH]ncn1,water,298,0.491937474,mol/L,84.082,-0.6131000000000004,67.59,2.0,3.0
CC(C)=CC(C)=O,water,298,-0.560826234,mol/L,98.145,1.5416,17.07,0.0,1.0
[Na+].[Na+].Oc1ccc(Cl)cc1N\N=C/2C(=O)c3c(O)cc(cc3C=C2[S]([O-])(=O)=O)[S]([O-])(=O)=O,water,298,-1.289808658,mol/L,518.8200000000003,-4.7861999999999965,196.32,3.0,11.0
[Cl-].CCOC(=O)c1ccccc1c2c3ccc(cc3[o+]c4cc(ccc24)N(CC)CC)N(CC)CC,water,298,-1.280189706,mol/L,507.0740000000004,4.407200000000005,44.080000000000005,0.0,4.0
Oc1ccc(Cl)cc1,water,298,-0.687659717,mol/L,128.558,2.0456,20.23,1.0,1.0
CC(=C)C#N,water,298,-0.406708517,mol/L,67.09100000000001,1.08608,23.79,0.0,1.0
Cc1ccccc1O,water,298,-0.619013017,mol/L,108.13999999999999,1.70062,20.23,1.0,1.0
OCCOc1ccccc1,water,298,-0.725427837,mol/L,138.16599999999997,1.0576999999999999,29.46,1.0,2.0
CC(C)OC(C)=O,water,298,-0.594192741,mol/L,102.133,0.9579,26.3,0.0,2.0
[Li+].[Li+].[O-][S]([O-])(=O)=O,water,298,0.392124281,mol/L,109.945,-7.329999999999999,80.25999999999999,0.0,4.0
CC(=C)C(=O)OCC[N+](C)(C)CCC[S]([O-])(=O)=O,water,298,0.96273997,mol/L,279.358,0.11740000000000039,83.5,0.0,5.0
[Li+].[Li+].[O-][S]([O-])(=O)=O,water,298,0.365364697,mol/L,109.945,-7.329999999999999,80.25999999999999,0.0,4.0
[Cl-].[Cl-].[Ni++],water,298,1.292232066,mol/L,129.599,-5.9945,0.0,0.0,0.0
[Na+].[Na+].CN(CC[S]([O-])(=O)=O)c1ccc(cc1)/C=C(C#N)/C(=O)Nc2ccc(cc2)c3sc4c(ccc(C)c4[S]([O-])(=O)=O)n3,water,298,-0.415949942,mol/L,656.6750000000002,-2.289099999999994,183.41999999999996,1.0,11.0
NCC(O)=O,water,298,0.522490949,mol/L,75.067,-0.9702999999999999,63.32,2.0,2.0
Cc1ccccc1O,water,298,-0.620686601,mol/L,108.13999999999999,1.70062,20.23,1.0,1.0
CC(=C)C#N,water,298,-0.416731142,mol/L,67.09100000000001,1.08608,23.79,0.0,1.0
CC(=C)C#N,water,298,-0.421830549,mol/L,67.09100000000001,1.08608,23.79,0.0,1.0
NC(CC(N)=O)C(O)=O,water,298,-0.721291556,mol/L,132.119,-1.7263000000000002,106.41,3.0,3.0
NC(Cc1ccccc1)C(O)=O,water,298,-0.819701706,mol/L,165.19199999999995,0.641,63.32,2.0,2.0
Cc1ccccc1O,water,298,-0.636046357,mol/L,108.13999999999999,1.70062,20.23,1.0,1.0
OCCOc1ccccc1,water,298,-0.742461176,mol/L,138.16599999999997,1.0576999999999999,29.46,1.0,2.0
OC(=O)CCCCC(O)=O,water,298,-0.766835038,mol/L,146.14200000000002,0.7160000000000002,74.6,2.0,2.0
CC(=C)C#N,water,298,-0.428724257,mol/L,67.09100000000001,1.08608,23.79,0.0,1.0
[K+].OC(=O)C([O-])=O,water,298,-0.70969048,mol/L,128.124,-5.1751000000000005,77.43,1.0,3.0
[K].OC(=O)C(O)=O.OC(=O)C(O)=O,water,298,-0.942833173,mol/L,219.16599999999997,-2.0696,149.2,4.0,4.0
[Na+].ClN1C(=O)[N-]C(=O)N(Cl)C1=O,water,298,0.052483734,mol/L,219.947,-4.6648000000000005,75.17,0.0,5.0
[Na+].[Na+].CC(=O)Nc1ccc2C(=O)C(=N/Nc3ccc(cc3)[S](=O)(=O)CCO[S]([O-])(=O)=O)\C(=Cc2c1)[S]([O-])(=O)=O,water,298,-0.39639349,mol/L,617.5470000000004,-5.545999999999991,228.32999999999996,2.0,13.0
CC(=O)NNC(C)=O,water,298,0.328668176,mol/L,116.11999999999999,-0.8264,58.2,2.0,2.0
CCOC(=O)C(C)C1CCCCC1,water,298,-3.327456749,mol/L,184.2789999999999,2.765900000000001,26.3,0.0,2.0
[Ca++].[O-]C(=O)C1CCC(=O)N1,water,298,0.165147848,mol/L,168.185,-2.3659,69.22999999999999,1.0,3.0
COC(C)=O,water,298,0.516803854,mol/L,74.079,0.17930000000000001,26.3,0.0,2.0
[Na+].[Na+].Cc1cc(Oc2cc(C)cc(c2)[S]([O-])(=O)=O)cc(c1)[S]([O-])(=O)=O,water,298,-0.220796195,mol/L,402.35700000000014,-4.088059999999993,123.63,0.0,7.0
CN(C)CCOC(=O)C=C,water,298,0.224310685,mol/L,143.18599999999998,0.2771999999999999,29.54,0.0,3.0
CC1COC(=O)O1,water,298,0.371232292,mol/L,102.08899999999998,0.5417000000000001,35.53,0.0,3.0
COc1ccc(CO)cc1,water,298,-0.744727146,mol/L,138.166,1.1874999999999998,29.46,1.0,2.0
Nc1ccccc1.C=O,water,298,-2.004092218,mol/L,123.15499999999999,1.0839,43.09,1.0,2.0
Nc1ccccc1.C=O,water,298,-2.534149548,mol/L,123.15499999999999,1.0839,43.09,1.0,2.0
OC1(CCCCC1)C#C,water,298,-0.704896063,mol/L,124.18299999999999,1.3148,20.23,1.0,1.0
Cc1ccccc1O,water,298,-0.644820281,mol/L,108.13999999999999,1.70062,20.23,1.0,1.0
OC(=O)c1ccc2C(=O)OC(=O)c2c1,water,298,-0.896196315,mol/L,192.12599999999998,0.6954,80.66999999999999,1.0,4.0
OCCOc1ccccc1,water,298,-0.760189943,mol/L,138.16599999999997,1.0576999999999999,29.46,1.0,2.0
Oc1ccc(Cl)cc1,water,298,-0.728887866,mol/L,128.558,2.0456,20.23,1.0,1.0
[Cs],water,298,0.255764198,mol/L,132.905,-0.3808,0.0,0.0,0.0
CC(C)(CO)COC(=O)C(C)(C)CO,water,298,0.068201817,mol/L,204.26599999999996,0.5665999999999998,66.76,2.0,4.0
[Na+].[Na+].[Na+].[Na+].[Cu++].Nc1nc(Cl)nc(Nc2cc(cc3cc(c(N=Nc4cc(c5cccc(c5c4[O-])[S]([O-])(=O)=O)[S]([O-])(=O)=O)c([O-])c23)[S]([O-])(=O)=O)[S]([O-])(=O)=O)n1,water,298,-0.590781442,mol/L,927.5950000000004,-11.650300000000009,376.3599999999999,2.0,21.0
[Na+].ClN1C(=O)[N-]C(=O)N(Cl)C1=O,water,298,0.032063655,mol/L,219.947,-4.6648000000000005,75.17,0.0,5.0
NNC(=O)NN,water,298,0.414558554,mol/L,90.08600000000001,-1.9670000000000005,93.16999999999999,4.0,3.0
CCCC(C)O,water,298,-0.254140825,mol/L,88.14999999999999,1.1673,20.23,1.0,1.0
[Na+].CC(=O)[C-]1C(=O)OC(=CC1=O)C,water,298,0.084561332,mol/L,190.12999999999997,-2.7660799999999997,64.35,0.0,4.0
COC=O,water,298,0.58320036,mol/L,60.05200000000001,-0.2108000000000001,26.3,0.0,2.0
Cc1cccc(O)c1,water,298,-0.662918503,mol/L,108.13999999999999,1.7006199999999998,20.23,1.0,1.0
COc1ccccc1O,water,298,-0.726552322,mol/L,124.13899999999997,1.4008,29.46,1.0,2.0
CS,water,298,-0.314879436,mol/L,48.11000000000001,0.546,0.0,1.0,1.0
Oc1ccccc1Cl,water,298,-0.74267615,mol/L,128.558,2.0456000000000003,20.23,1.0,1.0
CC(C)CC(N)C(O)=O,water,298,-0.756123237,mol/L,131.17499999999998,0.44439999999999996,63.32,2.0,2.0
CCCC1CO1,water,298,-0.57344678,mol/L,86.134,1.1853,12.53,0.0,1.0
Cc1cccc(O)c1,water,298,-0.672258529,mol/L,108.13999999999999,1.7006199999999998,20.23,1.0,1.0
OC(=O)CCCCC(O)=O,water,298,-0.803047211,mol/L,146.14200000000002,0.7160000000000002,74.6,2.0,2.0
[K+].O[B-](O)(F)F,water,298,-0.724347118,mol/L,121.92,-3.6504000000000003,40.46,2.0,2.0
[Na+].CC(=O)Nc1ccc(NNC2=C3C(=O)C=C(C=C3C=CC2=N)[S]([O-])(=O)=O)c(c1)C(F)(F)F,water,298,-1.328818198,mol/L,490.39500000000015,-0.6338300000000001,151.28,4.0,8.0
[Cl].[Fe].[O-][S]([O-])(=O)=O,water,298,0.085255651,mol/L,187.361,-0.6509999999999998,80.25999999999999,0.0,4.0
[Cl-].[Cl-].[Cl-].[Fe+3],water,298,0.147873287,mol/L,162.204,-8.990499999999999,0.0,0.0,0.0
[Fe++].[O-][S]([O-])(=O)=O,water,298,0.176354201,mol/L,151.908,-1.3405,80.25999999999999,0.0,4.0
N[C+](N)N.[O-]C(=O)c1ccccc1,water,298,0.005016256,mol/L,181.19500000000002,-1.640409999999999,118.19,3.0,5.0
[H+].[Cl-].NCC1(CCCCC1)CC(O)=O,water,298,0.034743931,mol/L,207.70099999999996,-1.513199999999998,63.32,2.0,2.0
O.O.O.O.[Na+].[Na+].[O-]B([O-])[O-].[O-]B([O-])[O-].[O-]B([O-])[O-].[O-]B([O-])[O-].[O-]B([O-])[O-].[O-]B([O-])[O-].[O-]B([O-])[O-].[O-]B([O-])[O-],water,298,-0.42018642,mol/L,588.5120000000004,-40.87319999999999,679.4399999999996,0.0,24.0
[Na+].[O-]C(=O)COc1ccccc1,water,298,0.108595705,mol/L,174.131,-3.180699999999997,49.36,0.0,3.0
CCC(C)=O,water,298,0.490327436,mol/L,72.10699999999999,0.9854,17.07,0.0,1.0
[Na+].CCN(CC)c1ccc(cc1)[C+](c2ccc(cc2)N(CC)CC)c3ccc(cc3[S]([O-])(=O)=O)[S]([O-])(=O)=O,water,298,-0.406689269,mol/L,566.6770000000004,1.2103900000000014,120.88,0.0,8.0
[NH4+].[NH4+].[Zn++].[Zn++].[O-]C([O-])=O.[O-]C([O-])=O.[O-]C([O-])=O,water,298,-0.197759084,mol/L,346.8820000000001,-6.593600000000002,262.57,2.0,9.0
Cc1cccc(O)c1,water,298,-0.677960508,mol/L,108.13999999999999,1.7006199999999998,20.23,1.0,1.0
[NH4+].[NH4+].[O-]C(=O)C([O-])=O,water,298,-0.737731926,mol/L,124.09599999999999,-2.7614,153.26,2.0,4.0
Oc1ccccc1Cl,water,298,-0.753839202,mol/L,128.558,2.0456000000000003,20.23,1.0,1.0
Cn1cnc2N(C)C(=O)N(C)C(=O)c12,water,298,-0.945813127,mol/L,194.19399999999996,-1.0293,61.82,0.0,6.0
NC(Nc1ccccc1)=Nc2ccccc2,water,298,-0.98241104,mol/L,211.26799999999997,2.7449000000000012,50.41,2.0,1.0
Clc1ccc(Br)cc1Cl,water,298,-1.01149355,mol/L,225.89999999999998,3.7559000000000005,0.0,0.0,0.0
CCCC[NH+](C)C,water,298,-0.667032464,mol/L,102.20099999999998,-0.0689999999999995,4.44,1.0,0.0
[Na+].[Na+].[Na+].[Na+].[O-][S](=O)(=O)c1cccc2cc(NNC3=CC(=O)C4=CC(C=CC4=C3[S]([O-])(=O)=O)=NC(=O)Nc5ccc6C(=O)C(=N/Nc7ccc8cccc(c8c7)[S]([O-])(=O)=O)/C(=Cc6c5)[S]([O-])(=O)=O)ccc12,water,298,-0.687217137,mol/L,1060.8980000000001,-8.280600000000032,352.8499999999999,4.0,19.0
[H+].[Cl-].NCC1(CCCCC1)CC(O)=O,water,298,0.019021146,mol/L,207.70099999999996,-1.513199999999998,63.32,2.0,2.0
NC(N)=N.SC#N,water,298,1.259949601,mol/L,118.16499999999999,-0.76415,99.68,4.0,3.0
[H+].[Cl-].NC(N)=N,water,298,1.352285044,mol/L,95.53300000000002,-4.04493,75.89,3.0,1.0
OC(C(O)C(O)=O)C(O)=O,water,298,0.156098277,mol/L,150.08599999999998,-2.1226,115.06,4.0,4.0
[K+].O[C@H]([C@@H](O)C([O-])=O)C(O)=O,water,298,0.057874227,mol/L,188.17599999999996,-6.453299999999998,117.89000000000001,3.0,5.0
[Na+].[K+].O[C@H]([C@@H](O)C([O-])=O)C([O-])=O,water,298,0.009892533,mol/L,210.15799999999993,-10.783999999999999,120.72,2.0,6.0
CC(=O)CC(=O)OCCOC(=O)CC(C)=O,water,298,-0.0337559,mol/L,230.21599999999995,0.03100000000000014,86.74000000000001,0.0,6.0
[Na+].Nc1ccc(cc1)[S]([O-])(=O)=O,water,298,0.037955415,mol/L,195.17499999999995,-2.8230999999999984,83.22,1.0,4.0
C1OCOCO1,water,298,0.371717126,mol/L,90.078,-0.07769999999999999,27.69,0.0,3.0
C1OCOCO1,water,298,0.36966372,mol/L,90.078,-0.07769999999999999,27.69,0.0,3.0
[Mn++].O[P]([O-])([O-])=O,water,298,0.14554717,mol/L,150.916,-2.1951,83.41999999999999,1.0,3.0
O.[Zn++].[O-][S]([O-])(=O)=O,water,298,0.070295432,mol/L,179.468,-2.1652,111.75999999999999,0.0,4.0
[Na+].[Na+].[O-][Si]([O-])=O,water,298,0.235635255,mol/L,122.06299999999999,-8.8696,63.19,0.0,3.0
O.[Zn++].[O-][S]([O-])(=O)=O,water,298,0.068232272,mol/L,179.468,-2.1652,111.75999999999999,0.0,4.0
CC(C)CC(C)O,water,298,-0.670896654,mol/L,102.17699999999998,1.4133,20.23,1.0,1.0
[Na+].[O-]C(=O)Cc1ccccc1Nc2c(Cl)cccc2Cl,water,298,-1.174231848,mol/L,318.135,0.03340000000000215,52.16,1.0,3.0
[Na+].[Na+].COc1cc(ccc1Nc2nc(Nc3ccc(cc3OC)N=Nc4cccc(c4)[S]([O-])(=O)=O)nc(n2)N(CCO)CCO)N=Nc5cccc(c5)[S]([O-])(=O)=O,water,298,-1.600815525,mol/L,838.7929999999999,-1.1859999999999935,288.72999999999996,4.0,20.0
CCC(CO)(CO)COCC(CC)(CO)CO,water,298,-1.076302279,mol/L,250.33499999999992,-0.2350000000000002,90.15,4.0,5.0
COC(=O)CCS,water,298,-0.757587608,mol/L,120.17300000000002,0.4792999999999999,26.3,1.0,3.0
CCCCCO,water,298,-0.623003022,mol/L,88.14999999999999,1.1689,20.23,1.0,1.0
[Na+].Cc1ccc(cc1[N+]([O-])=O)C(=O)Nc2ccc(cc2)[S]([O-])(=O)=O,water,298,-1.232035998,mol/L,358.3070000000001,-0.9363799999999987,129.44,1.0,6.0
Cc1[nH]cnc1CO,water,298,0.268333767,mol/L,112.13199999999999,0.21041999999999994,48.91,2.0,2.0
[H+].[Cl-].NCC1(CCCCC1)CC(O)=O,water,298,0.000624748,mol/L,207.70099999999996,-1.513199999999998,63.32,2.0,2.0
[K+].O[P](O)([O-])=O,water,298,0.184256269,mol/L,136.084,-4.5565999999999995,80.59,2.0,2.0
C=CC=O,water,298,0.569379255,mol/L,56.064,0.37129999999999996,17.07,0.0,1.0
O.[Zn++].[O-][S]([O-])(=O)=O,water,298,0.064076312,mol/L,179.468,-2.1652,111.75999999999999,0.0,4.0
O.O.O.O.[Ce+3].O[S]([O-])(=O)=O.[O-][S]([O-])(=O)=O,water,298,-0.291816974,mol/L,405.3100000000002,-5.6321999999999965,283.69,1.0,7.0
N.N.N.N.N.N.O.O.O.O.O.O.O.O.O.O.O.O.O.O.O.O.O.O.O.O.O.O.O.O.[Mo].[Mo].[Mo].[Mo].[Mo].[Mo].[Mo],water,298,-0.766472624,mol/L,1206.1260000000009,-18.8383,966.0,6.0,6.0
[NH4+].[O-][Cl](=O)(=O)=O,water,298,0.243662836,mol/L,117.488,-4.3798,128.74,1.0,4.0
[Na+].[Na+].[Na+].[Na+].[Na+].[Cu++].[O-]C(=O)c1cc(ccc1NNC(=N/Nc2cc(cc([N-]c3nc(Cl)nc(n3)N=C4C=C(C(C=C4[S]([O-])(=O)=O)=Nc5nc(Cl)nc(Nc6cccc(c6)[S]([O-])(=O)=O)n5)[S]([O-])(=O)=O)c2[O-])[S]([O-])(=O)=O)\c7ccccc7)[S]([O-])(=O)=O.[H+],water,298,-0.825411234,mol/L,1371.403,-14.169300000000009,525.8299999999999,4.0,30.0
CC(=C)C(N)=O,water,298,0.37539119,mol/L,85.10600000000001,0.047800000000000176,43.09,1.0,1.0
[Na+].[Na+].[Na+].[Na+].[Na+].[Na+].CCN(CC)c1nc(Nc2ccc(\C=C\c3ccc(Nc4nc(Nc5cc(ccc5[S]([O-])(=O)=O)[S]([O-])(=O)=O)nc(n4)N(CC)CC)cc3[S]([O-])(=O)=O)c(c2)[S]([O-])(=O)=O)nc(Nc6cc(ccc6[S]([O-])(=O)=O)[S]([O-])(=O)=O)n1,water,298,-0.812249023,mol/L,1305.1520000000003,-15.657599999999933,475.1399999999999,4.0,30.0
[Cl-].CN[C@@H](C)[C@H](O)c1ccccc1.[H+],water,298,-0.003669443,mol/L,201.697,-1.5555999999999983,32.26,2.0,2.0
[Li+].[OH-],water,298,0.921760746,mol/L,23.948,-3.1728,30.0,0.0,1.0
[Na+].[O-][N+](=O)c1cccc(c1)[S]([O-])(=O)=O,water,298,-0.051455458,mol/L,225.15699999999995,-2.4970999999999988,100.34,0.0,5.0
CCCOC(C)=O,water,298,-0.699535921,mol/L,102.13299999999998,0.9595,26.3,0.0,2.0
CC1=CC(=O)CC(C)(C)C1=O,water,298,-0.87790415,mol/L,152.19299999999998,1.5008,34.14,0.0,2.0
[K+].O[B-](O)(F)F,water,298,-0.782878897,mol/L,121.92,-3.6504000000000003,40.46,2.0,2.0
OCCOCC#CCOCCO,water,298,0.758961822,mol/L,174.19599999999997,-0.9924000000000002,58.92,2.0,4.0
OC(=O)c1cc(cc(c1O)[N+]([O-])=O)[N+]([O-])=O,water,298,-1.057125752,mol/L,228.11599999999999,0.9067999999999998,143.81,2.0,6.0
OCCc1ccccc1,water,298,-0.785923914,mol/L,122.16699999999996,1.2214,20.23,1.0,1.0
CCOc1ccc(N)cc1,water,298,-0.836267135,mol/L,137.182,1.6675,35.25,1.0,2.0
C[Si](C)(C)N[Si](C)(C)C,water,298,-0.906865462,mol/L,161.397,2.2458,12.03,1.0,1.0
CC(=O)OC=C,water,298,-0.633922712,mol/L,86.09,0.693,26.3,0.0,2.0
CCOC(=O)C(Cl)C(C)=O,water,298,-0.915368172,mol/L,164.588,0.7459,43.370000000000005,0.0,3.0
CCOC(=O)CC#N,water,298,-0.752494044,mol/L,113.116,0.46318,50.09,0.0,3.0
CCOC(=O)C=C,water,298,-0.699477832,mol/L,100.11699999999999,0.7355,26.3,0.0,2.0
Oc1ccccc1C#N,water,298,-0.774965627,mol/L,119.12299999999999,1.2638800000000001,44.019999999999996,1.0,2.0
[Na+].Nc1c(cc(Br)c2C(=O)c3ccccc3C(=O)c12)[S]([O-])(=O)=O,water,298,-1.305537302,mol/L,404.1730000000002,-1.2851999999999995,117.35999999999999,1.0,6.0
C[Si](C)C,water,298,-0.563427685,mol/L,73.19099999999999,1.3705999999999998,0.0,0.0,0.0
OCCOCCO.O=C1OC(=O)c2ccccc12,water,298,-1.405240463,mol/L,254.238,-0.015200000000000102,93.06,2.0,6.0
[Na+].[Na+].[Fe].Nc1ccc(cc1)[N+]([O-])=O.Nc2cccc(c2)[S]([O-])(=O)=O.Nc3ccc(Nc4ccccc4)c(c3)[S]([O-])(=O)=O.OC\5=CC(=O)C=CC5=N/Nc6cc(cc(c6O)[N+]([O-])=O)[N+]([O-])=O,water,298,-2.526815423,mol/L,995.6510000000002,-1.1707999999999907,415.83,7.0,21.0
OC(=O)c1ccccc1,water,298,-1.619929844,mol/L,122.12299999999996,1.3848,37.3,1.0,1.0
O=C1N[S](=O)(=O)c2ccccc12,water,298,-1.800499023,mol/L,183.18800000000002,0.11869999999999997,63.24,1.0,3.0
OC1=CC(=O)NC=N1,water,298,-1.587161122,mol/L,112.088,-0.5245000000000002,65.97999999999999,2.0,3.0
S=C=S,water,298,-1.419243393,mol/L,76.14500000000001,1.0181,0.0,0.0,2.0
O=COCc1ccccc1,water,298,-1.673119803,mol/L,136.14999999999998,1.3596,26.3,0.0,2.0
CCCCOCC,water,298,-1.54996066,mol/L,102.17699999999999,1.823,9.23,0.0,1.0
COc1cccc(c1)C(C)=O,water,298,-1.724816989,mol/L,150.17699999999996,1.8978,26.3,0.0,2.0
Nc1ccc(Cl)cc1,water,298,-1.657055853,mol/L,127.574,1.9222,26.02,1.0,1.0
CCOC(=O)C(=N/Nc1ccc(cc1)[N+]([O-])=O)/C(=O)C2=NN3C(=NC(=O)c4ccccc34)S2,water,298,-2.2216331,mol/L,466.43500000000023,2.4263000000000003,158.15999999999997,1.0,12.0
CCCCOCCOCCOCCCC,water,298,-1.891969307,mol/L,218.33699999999993,2.636400000000001,27.69,0.0,3.0
Cc1ccccc1N=C(N)N=C(N)N,water,298,-1.842241499,mol/L,191.23799999999997,0.21462000000000026,102.77999999999999,3.0,1.0
[Ca++].[O-][S]([O-])(=O)=O,water,298,-1.694656243,mol/L,136.141,-1.7187999999999999,80.25999999999999,0.0,4.0
CC1=NN(C(=O)C1)c2ccccc2,water,298,-1.808086339,mol/L,174.203,1.7992,32.67,0.0,2.0
NN=C(N)N.OC(O)=O,water,298,-1.702529461,mol/L,136.111,-1.6441,147.95,5.0,3.0
CC(C)(O)C1CCC(C)(O1)C=C,water,298,-1.799728458,mol/L,170.25199999999998,1.881,29.46,1.0,2.0
CC(=O)CC(=O)Nc1ccccc1C,water,298,-1.850192261,mol/L,191.23,1.91262,46.17,1.0,2.0
CC(C)C(NC(N)=O)NC(N)=O,water,298,-1.809694359,mol/L,174.20399999999998,-0.694899999999999,110.23999999999998,4.0,2.0
FC(F)CCl,water,298,-0.922963209,mol/L,100.495,1.4903,0.0,0.0,0.0
CC(C)(O)c1cccc(c1)C(C)(C)O,water,298,-1.863533046,mol/L,194.27399999999997,2.1414000000000004,40.46,2.0,2.0
CCc1cccc(C)c1N,water,298,-1.706127176,mol/L,135.20999999999995,2.13962,26.02,1.0,1.0
OC(=O)CC1(CCCCC1)CC(O)=O,water,298,-1.879933896,mol/L,200.23399999999998,1.8863,74.6,2.0,2.0
[Ca++].[O-][S]([O-])(=O)=O,water,298,-1.715687645,mol/L,136.141,-1.7187999999999999,80.25999999999999,0.0,4.0
NC(N)=N[N+]([O-])=O,water,298,-1.602348034,mol/L,104.06899999999999,-1.5484999999999998,107.54000000000002,2.0,2.0
COc1ccc(NC(=O)CC(C)=O)cc1,water,298,-1.901477183,mol/L,207.22899999999998,1.6127999999999998,55.4,1.0,3.0
CC1OCC(O1)c2ccccc2,water,298,-1.805450609,mol/L,164.20399999999998,2.1205,18.46,0.0,2.0
CCCC1CC(=CC(=O)C1)C,water,298,-1.772587094,mol/L,152.23699999999997,2.711900000000001,17.07,0.0,1.0
CC(=O)Oc1ccc(cc1)C#N,water,298,-1.799017293,mol/L,161.16,1.4835800000000001,50.09,0.0,3.0
CCCCC(CC)CN,water,298,-1.71174675,mol/L,129.24699999999999,2.1615,26.02,1.0,1.0
OC(=O)CC[C@H](N1C(=O)c2ccccc2C1=O)C(O)=O,water,298,-1.446331686,mol/L,277.232,0.6006000000000002,111.98000000000002,2.0,4.0
CC(C)C1CCC(=CC1)C.CC(C)C2CCC(=CC2)C,water,298,-5.495255436,mol/L,276.50800000000004,6.777600000000007,0.0,0.0,0.0
ClC(Cl)=C,water,298,-1.588580927,mol/L,96.944,1.9352,0.0,0.0,0.0
[O--].[O--].[O--].[Gd+3].[Gd+3],water,298,-2.161364408,mol/L,362.497,-0.3564,85.5,0.0,0.0
OCCCCCCC=C,water,298,-1.712071006,mol/L,128.215,2.1151999999999997,20.23,1.0,1.0
CC(C)[C@H]1CCC(=CC1=O)C,water,298,-1.78824369,mol/L,152.237,2.567800000000001,17.07,0.0,1.0
CC1(C)S[C@@H]2[C@H](N)C(=O)N2[C@H]1C(O)=O,water,298,-1.944045108,mol/L,216.262,-0.5394000000000001,83.63,2.0,4.0
ClC\C=C/Cl,water,298,-1.656043415,mol/L,110.971,1.9777,0.0,0.0,0.0
[B+3].[Cl-].[Cl-].[Cl-].CCCCCCCCN(C)C,water,298,-5.465370193,mol/L,274.472,-6.460300000000005,3.24,0.0,1.0
Sc1ccccc1Cl,water,298,-1.780035133,mol/L,144.62599999999998,2.6287000000000003,0.0,1.0,1.0
OCC(CO)(CO)COCC(CO)(CO)CO,water,298,-2.025099253,mol/L,254.27899999999994,-3.070399999999999,130.61,6.0,7.0
Nc1nccnc1C(O)=O,water,298,-1.763159597,mol/L,139.11399999999998,-0.24300000000000016,89.1,2.0,4.0
CN(C)Cc1ccccc1Cl,water,298,-1.849355422,mol/L,169.65499999999997,2.4016,3.24,0.0,1.0
[Ca++].CCO[P]([O-])(=O)Cc1cc(c(O)c(c1)C(C)(C)C)C(C)(C)C.CCO[P]([O-])(=O)Cc2cc(c(O)c(c2)C(C)(C)C)C(C)(C)C,water,298,-2.46167357,mol/L,694.8400000000001,7.77340000000001,139.18,2.0,8.0
[Ca++].[O-][S]([O-])(=O)=O,water,298,-1.753777695,mol/L,136.141,-1.7187999999999999,80.25999999999999,0.0,4.0
CCOC(C)(C)C,water,298,-1.634604801,mol/L,102.17699999999999,1.8214000000000001,9.23,0.0,1.0
C=CCOC(=O)OCCOCCOC(=O)OCC=C,water,298,-2.06526472,mol/L,274.26899999999995,1.6814,80.29,0.0,7.0
OCCCCCCC=C,water,298,-1.744232864,mol/L,128.215,2.1151999999999997,20.23,1.0,1.0
OCCCCCCC=C,water,298,-1.745946728,mol/L,128.215,2.1151999999999997,20.23,1.0,1.0
Cl[S](=O)(=O)c1ccccc1,water,298,-1.88532188,mol/L,176.62400000000002,1.6141,34.14,0.0,2.0
CC(C)C1CCC(C)CC1OCC(O)CO,water,298,-2.006358589,mol/L,230.34799999999998,1.8169999999999997,49.69,2.0,3.0
COc1ccc(C=O)cc1O,water,298,-1.826243245,mol/L,152.14899999999997,1.2132999999999998,46.53,1.0,3.0
Cc1ccc(C=O)cc1,water,298,-1.723701533,mol/L,120.15099999999998,1.80752,17.07,0.0,1.0
Nc1ccc(O)cc1[N+]([O-])=O,water,298,-1.833764651,mol/L,154.125,0.8825999999999998,89.38999999999999,2.0,4.0
CC(C)c1ccc(N)cc1,water,298,-1.788586132,mol/L,135.20999999999998,2.3922000000000008,26.02,1.0,1.0