Solute,Solvent,Temperature_K,Solubility,Units,MW,LogP,TPSA,HBD,HBA
C[C@H]1[C@@H]2CC[C@@]3(C)C=CC(=O)C(=C3[C@H]2OC1=O)C,water,298,-3.0905,mol/L,246.30599999999995,2.419600000000001,43.370000000000005,0.0,3.0
C[C@]12CC[C@H](O)C[C@@H]1CC[C@@H]3[C@@H]2CC[C@@]4(C)[C@H]3CCC4=O,water,298,-4.1577,mol/L,290.447,3.959100000000003,37.3,1.0,2.0
CN1C2CCC1[C@H]([C@@H](O)C2)C(O)=O,water,298,-0.0173,mol/L,185.22299999999996,-0.0854000000000002,60.77,2.0,3.0
CN1C(=O)N(C)c2nncnc2C1=O,water,298,-1.9849,mol/L,193.166,-1.5777999999999999,82.66999999999999,0.0,7.0
COc1ccc2C=CC(=O)Oc2c1CC=C(C)C,water,298,-4.3087,mol/L,244.28999999999994,3.3103000000000016,39.44,0.0,3.0
CCC(C)c1cc(cc(c1OC(=O)C=C(C)C)[N+]([O-])=O)[N+]([O-])=O,water,298,-5.5083,mol/L,322.31700000000006,3.888100000000004,112.58000000000001,0.0,6.0
CC1CCC2C(C)C(=O)OCC12,water,298,-1.9249,mol/L,168.23599999999996,1.8416000000000001,26.3,0.0,2.0
OC(C1CC2CCN1CC2C=C)c3ccnc4ccccc34,water,298,-3.1679,mol/L,294.398,3.164600000000002,36.36,1.0,3.0
O[C@H]1CCN2C(=O)c3ccccc3N=C12,water,298,-2.106,mol/L,202.213,0.8336000000000001,55.120000000000005,1.0,4.0
CN1C[C@@H]2C[C@@H](C1)C3=CC=CC(=O)N3C2,water,298,0.6484,mol/L,204.273,0.8972,25.240000000000002,0.0,3.0
O=C1NC(=O)c2nccnc2N1,water,298,-2.1183,mol/L,164.124,-0.9936000000000003,91.5,2.0,4.0
CC1=C(CCC(O)=O)C(=O)NC1=O,water,298,-0.6608,mol/L,183.16299999999998,-0.17589999999999995,83.47,2.0,3.0
O[C@@H]1C[C@@H](O)[C@H](O)C(O)[C@H]1O,water,298,-0.1739,mol/L,164.15699999999998,-2.8054,101.15,5.0,5.0
CC(C)c1ccc(C)c2ccc(C)c2c1,water,298,-5.4752,mol/L,198.30899999999997,4.531640000000004,0.0,0.0,0.0
COC(=O)c1ccccc1OC2OC(COC3OCC(O)C(O)C3O)C(O)C(O)C2O,water,298,-0.7418,mol/L,446.40500000000003,-2.884799999999998,184.6,6.0,12.0
O=C1NC=Cc2ccccc12,water,298,-2.4842,mol/L,145.16099999999997,1.5281,32.86,1.0,1.0
Cc1cc(O)c2c(O)c3c(O)cccc3cc2c1,water,298,-3.0585,mol/L,240.258,3.4182200000000016,60.69,3.0,3.0
NC1=NC(=O)C2=C(N1)NC(=O)C(=O)N2,water,298,-5.1655,mol/L,195.13799999999998,-2.1181000000000005,137.48999999999998,4.0,5.0
OC(=O)C(=C)c1ccccc1,water,298,-2.0568,mol/L,148.161,1.7844,37.3,1.0,1.0
C[C@H](N)[C@@H](O)c1ccccc1,water,298,-0.8786,mol/L,151.20899999999997,1.0672000000000001,46.25,2.0,2.0
OC[C@H]1O[C@H](O)[C@H](O)[C@@H](O)[C@@H]1O,water,298,0.4433,mol/L,180.156,-3.2214000000000005,110.38000000000001,5.0,6.0
OC1=CC(=O)C[C@@H](C1)c2ccccc2,water,298,-2.5113,mol/L,188.22600000000003,2.575000000000001,37.3,1.0,2.0
C1CC[C@H](NC1)c2cccnc2,water,298,0.7898,mol/L,162.236,1.8961999999999999,24.92,1.0,2.0
OCc1cc(O)ccc1O,water,298,0.8534,mol/L,140.13799999999998,0.5900999999999998,60.69,3.0,3.0
O=Nc1ccc(NNC(=O)c2ccccc2)cc1,water,298,-4.6835,mol/L,241.25000000000003,2.841400000000001,70.56,2.0,4.0
O=C(NN\C=C/1C=CC=CC1=O)c2ccncc2,water,298,-3.6835,mol/L,241.25,0.8950000000000001,71.09,2.0,4.0
C1Cc2ccccc2N1,water,298,-1.0427,mol/L,119.16699999999997,1.6545999999999998,12.03,1.0,1.0
C\C=C(/C)C=O,water,298,-0.527,mol/L,84.11799999999998,1.1515,17.07,0.0,1.0
CC1OCCO1,water,298,0.8789,mol/L,88.106,0.3792,18.46,0.0,2.0
O=C1CC2CCC1C2,water,298,-1.7565,mol/L,110.156,1.3755,17.07,0.0,1.0
OC(O)=C1OC(=CC(=O)C1=O)C(O)=O,water,298,-1.377,mol/L,200.10199999999998,-0.5915999999999999,121.13,3.0,6.0
COc1cc(ccc1O)C(C)=O,water,298,-1.5216,mol/L,166.17599999999996,1.6034,46.53,1.0,3.0
CCC[C@@H](N)C(O)=O,water,298,-0.0687,mol/L,117.14799999999998,0.19839999999999997,63.32,2.0,2.0
C\C(=C\C(O)=O)C(O)=O,water,298,0.7795,mol/L,130.099,0.10189999999999999,74.6,2.0,2.0
CC(C)c1ccc(C)c(O)c1,water,298,-2.0798,mol/L,150.22099999999998,2.824020000000001,20.23,1.0,1.0
CC1CC(CC(C)(C)N1)OC(=O)c2ccccc2,water,298,-1.922,mol/L,247.33800000000002,2.762500000000001,38.33,1.0,3.0
OC(=O)C(=O)Nc1ccccc1,water,298,-1.3019,mol/L,165.148,0.7096999999999998,66.39999999999999,2.0,2.0
ClCCC(=O)NCc1ccccc1,water,298,-3.2959,mol/L,197.66500000000002,1.9317,29.1,1.0,1.0
NC(=O)NC(=O)C=CC(O)=O,water,298,-1.9202,mol/L,158.11299999999997,-1.1779000000000002,109.49000000000001,3.0,3.0
CCOC(=S)SSC(=S)OCC,water,298,-4.9432,mol/L,242.412,3.010600000000001,18.46,0.0,6.0
CCCCC(=O)CCCC,water,298,-2.5935,mol/L,142.242,2.935900000000001,17.07,0.0,1.0
C1COC1,water,298,1.236,mol/L,58.07999999999999,0.40670000000000006,9.23,0.0,1.0
O[S](=O)(=O)C[S](O)(=O)=O,water,298,1.1446,mol/L,176.171,-1.2804999999999995,108.73999999999998,2.0,4.0
C\C=C/C(O)=O,water,298,1.065,mol/L,86.08999999999999,0.6471,37.3,1.0,1.0
CC(C)CC(O)=O,water,298,-0.3996,mol/L,102.13299999999998,1.1171,37.3,1.0,1.0
Nc1ccncc1,water,298,-0.0529,mol/L,94.11699999999999,0.6638000000000001,38.91,1.0,2.0
Nc1ccccn1,water,298,0.9757,mol/L,94.117,0.6638000000000001,38.91,1.0,2.0
C1CSCCS1,water,298,-1.6029,mol/L,120.24199999999999,1.4664,0.0,0.0,2.0
OC(=O)CCCCCCC(O)=O,water,298,-1.1673,mol/L,174.196,1.4962000000000002,74.6,2.0,2.0
OC(=O)CCCCCCCCCCCC(O)=O,water,298,-2.2119,mol/L,244.33099999999993,3.4467000000000017,74.6,2.0,2.0
ClCCSCCCl,water,298,-2.3666,mol/L,159.08100000000002,2.1972000000000005,0.0,0.0,1.0
OC(=O)\C=C/C=C\C(O)=O,water,298,-2.8516,mol/L,142.10999999999999,0.2680000000000002,74.6,2.0,2.0
IC#N,water,298,-0.6333,mol/L,152.922,0.9024800000000001,23.79,0.0,1.0
CC(C)(C)Br,water,298,-2.3586,mol/L,137.01999999999998,2.1798,0.0,0.0,0.0
CC1(C)C2CCC1(C)C(O)C2,water,298,-2.3202,mol/L,154.253,2.1935000000000002,20.23,1.0,1.0
CC(C)(C(O)=O)C(C)(CC(O)=O)C(O)=O,water,298,-0.111,mol/L,218.20499999999996,0.6628,111.9,3.0,3.0
CC(C)(C)CC(=O)OCC(=O)C1(O)CCC2C3CCC4=CC(=O)CCC4(C)C3C(O)CC12C,water,298,-5.5111,mol/L,460.6110000000003,3.7687000000000026,100.90000000000002,2.0,6.0
[O-][N+](=O)C([N+]([O-])=O)([N+]([O-])=O)[N+]([O-])=O,water,298,-2.3381,mol/L,196.031,-1.2954999999999997,172.56,0.0,8.0
CN1CC[C@]23[C@H]4Oc5c(OCCN6CCOCC6)ccc(C[C@@H]1C2C=C[C@@H]4O)c35,water,298,-1.2994,mol/L,398.50300000000004,1.2034999999999998,54.400000000000006,1.0,6.0
CCC1(N2CCCCC2)C(=O)NC(=O)NC1=O,water,298,-2.1562,mol/L,239.275,-0.012900000000000245,78.51,2.0,4.0
CCOC(=O)C(O)(c1ccc(Cl)cc1)c2ccc(Cl)cc2,water,298,-4.3982,mol/L,325.19100000000003,3.7924000000000024,46.53,1.0,3.0
C[C@@H]1CC[C@@]2(OC1)O[C@H]3C[C@H]4[C@@H]5CC=C6C[C@@H](O)CC[C@]6(C)[C@H]5CC[C@]4(C)[C@H]3[C@@H]2C,water,298,-7.3166,mol/L,414.6300000000003,5.713900000000006,38.69,1.0,3.0
OC[C@H]1O[C@H](OC[C@H]2O[C@H](O[C@]3(CO)O[C@H](CO)[C@@H](O)[C@@H]3O)[C@H](O)[C@@H](O)[C@@H]2O)[C@H](O)[C@@H](O)[C@H]1O,water,298,-0.3962,mol/L,504.43800000000005,-7.571399999999989,268.67999999999995,11.0,16.0
CCCO[P](=O)(OCCC)OCCC,water,298,-1.5412,mol/L,224.23699999999994,3.3743000000000025,44.760000000000005,0.0,4.0
CC=C(C)C,water,298,-2.5604,mol/L,70.13499999999999,1.9725,0.0,0.0,0.0
CC(C)=CCl,water,298,-1.9569,mol/L,90.553,2.1489000000000003,0.0,0.0,0.0
CC(=C)CO,water,298,0.4298,mol/L,72.107,0.5548,20.23,1.0,1.0
CCC(C)S,water,298,-1.8346,mol/L,90.19099999999999,1.7147,0.0,1.0,1.0
CC(=C)C(C)=C,water,298,-2.4014,mol/L,82.146,2.1386000000000003,0.0,0.0,0.0
C[C@@H](O)[C@H](C)O,water,298,1.0452,mol/L,90.122,-0.252,40.46,2.0,2.0
CC(O)C(C)=O,water,298,1.055,mol/L,88.106,-0.043800000000000006,37.3,1.0,2.0
CC(C)C1=CC2=CC[C@@H]3[C@](C)(CCC[C@@]3(C)C(O)=O)[C@H]2CC1,water,298,-3.7959,mol/L,302.458,5.206200000000004,37.3,1.0,1.0
CC12CC[C@H](O)CC1CCC3C4CCC(=O)C4(C)CC(O)C23,water,298,-3.5932,mol/L,306.44599999999997,2.9299000000000017,57.53,2.0,3.0
CC(O)(C(O)=O)c1ccccc1,water,298,-0.8949,mol/L,166.176,0.9787000000000001,57.53,2.0,2.0
Cc1csc(N[S](=O)(=O)c2ccc(N)cc2)n1,water,298,-2.1293,mol/L,269.351,1.83452,85.08,2.0,5.0
Cc1cc(N[S](=O)(=O)c2ccc(N)cc2)nc(C)n1,water,298,-2.2364,mol/L,278.33700000000005,1.47644,97.97,2.0,5.0
CC(C(O)=O)C(O)=O,water,298,0.7597,mol/L,118.08799999999998,-0.20829999999999999,74.6,2.0,2.0
CC(C)C(N)C(O)=O,water,298,-0.1971,mol/L,117.14799999999998,0.05430000000000007,63.32,2.0,2.0
CC12CCc3c(ccc4cc(O)ccc34)C1CCC2=O,water,298,-5.2436,mol/L,266.34,3.9444000000000026,37.3,1.0,2.0
CC(=O)C1CCOC1=O,water,298,0.1934,mol/L,128.127,0.13850000000000007,43.370000000000005,0.0,3.0
COc1cc(cc(OC)c1OC)[C@H]2[C@@H]3[C@H](COC3=O)Cc4c(O)c5OCOc5cc24,water,298,-4.5035,mol/L,414.41000000000025,2.623900000000001,92.68,1.0,8.0
Oc1ccc2c(Oc3cc(O)ccc3C24OC(=O)c5ccccc45)c1,water,298,-3.8226,mol/L,332.31100000000004,3.6658000000000026,75.99000000000001,2.0,5.0
COc1ccc(C=O)c(C(O)=O)c1OC,water,298,-1.9247,mol/L,210.18499999999997,1.2145,72.83,1.0,4.0
CN(C)C(=O)C(=O)N(N(C)C(C)=O)c1ccccc1,water,298,-0.5345,mol/L,263.29699999999997,0.5010999999999997,60.93000000000001,0.0,3.0
C[C@]12CC[C@H]3[C@@H](CC[C@H]4CC(=O)CC[C@]34C)[C@@H]1CC[C@@H]2O,water,298,0.2571,mol/L,290.44699999999995,3.9591000000000034,37.3,1.0,2.0
Oc1c(Br)cc(Br)c2cccnc12,water,298,-4.1938,mol/L,302.95300000000003,3.4654000000000007,33.120000000000005,1.0,2.0
CCC1CN2CCC1CC2C(O)c3ccnc4ccc(OC)cc34,water,298,-3.0514,mol/L,326.4400000000001,3.3972000000000024,45.59,1.0,4.0
O[S](=O)(=O)c1ccc2c(cccc2[S](O)(=O)=O)c1,water,298,0.5402,mol/L,288.302,1.3332000000000002,108.73999999999998,2.0,4.0
CC(C)NCC(O)COc1cccc2ccccc12,water,298,-3.6202,mol/L,259.34900000000005,2.5775000000000006,41.489999999999995,2.0,3.0
NC(Cc1[nH]nc2ccccc12)C(O)=O,water,298,-1.4091,mol/L,205.21699999999998,0.5172999999999994,92.0,3.0,3.0
Cc1cccc(O)c1C,water,298,-1.4271,mol/L,122.16699999999999,2.0090399999999997,20.23,1.0,1.0
OC(C(O)C(O)=O)C(O)=O,water,298,0.2148,mol/L,150.08599999999998,-2.1226,115.06,4.0,4.0
O[C@H]([C@H](O)[C@H](O)C(O)=O)[C@@H](O)C(O)=O,water,298,-0.3225,mol/L,210.13799999999998,-3.4008,155.52,6.0,6.0
[Na+].OCC(O)C(O)C(O)C(O)C([O-])=O,water,298,0.4321,mol/L,218.13699999999997,-7.823799999999995,141.28,5.0,7.0
[Cu++].OC[C@@H](O)[C@@H](O)[C@H](O)[C@@H](O)C([O-])=O.OC[C@@H](O)[C@@H](O)[C@H](O)[C@@H](O)C([O-])=O,water,298,-0.1798,mol/L,453.8400000000002,-9.658100000000001,282.55999999999995,10.0,14.0
OC(=O)c1sccc1,water,298,-1.2327,mol/L,128.152,1.4463000000000001,37.3,1.0,2.0
CC(C)c1ccccc1C,water,298,-3.7606,mol/L,134.22199999999995,3.118420000000002,0.0,0.0,0.0
Oc1ccc(cc1C(=O)C(=O)c2cc(ccc2O)[N+]([O-])=O)[N+]([O-])=O,water,298,-3.5214,mol/L,332.2240000000001,1.9798000000000004,160.88,2.0,8.0
CC(=O)c1ccc(O)c(O)c1O,water,298,-2.0216,mol/L,168.14799999999997,1.006,77.76,3.0,4.0
OC(=O)c1ccc(C(O)=O)c(c1)C(O)=O,water,298,-1.0003,mol/L,210.14099999999996,0.7811999999999999,111.9,3.0,3.0
OC(=O)c1ccc(c(c1)[N+]([O-])=O)[N+]([O-])=O,water,298,-1.5005,mol/L,212.11699999999996,1.2011999999999998,123.58000000000001,1.0,5.0
CC(C)C(CC=C)C(=O)NC(N)=O,water,298,-2.7469,mol/L,184.23899999999998,1.0296,72.19,2.0,2.0
O=C1C=CNc2ccccc12,water,298,-1.366,mol/L,145.16099999999997,1.5281,32.86,1.0,1.0
Oc1c2ccccc2cc3ccccc13,water,298,-4.7329,mol/L,194.23299999999998,3.6986000000000017,20.23,1.0,1.0
C=C(c1ccccc1)c2ccccc2,water,298,-4.4363,mol/L,180.24999999999997,3.7481000000000018,0.0,0.0,0.0
OC(=O)c1ccccc1Nc2cccc(c2)C(F)(F)F,water,298,-4.4906,mol/L,281.23299999999995,4.147200000000001,49.33,2.0,2.0
ONC1=C(CCCCC1)N=O,water,298,-1.4249,mol/L,156.185,1.9073,61.69,2.0,4.0
COc1ccc2C=CC(=O)Oc2c1,water,298,-3.1221,mol/L,176.17099999999996,1.8016,39.44,0.0,3.0
COc1ccccc1OCC(O)COC(N)=O,water,298,-1.5251,mol/L,241.24299999999994,0.5302000000000002,91.00999999999999,2.0,5.0
[Na+].[O-]C(=O)c1ccccc1,water,298,0.5864,mol/L,144.105,-2.945899999999998,40.129999999999995,0.0,2.0
[H+].[Cl-].Nc1ccc(N=Nc2ccccc2)c(N)c1,water,298,-4.0947,mol/L,248.717,0.38290000000000013,76.75999999999999,2.0,4.0
CCOC(=O)COc1ccc(Cl)cc1Cl,water,298,-3.3503,mol/L,249.093,2.9353000000000016,35.53,0.0,3.0
CCCCCc1ccc(O)cc1O,water,298,-1.9548,mol/L,180.24699999999999,2.830500000000002,40.46,2.0,2.0
CCN(CC)C(=O)CC(C)C,water,298,-0.5946,mol/L,157.25699999999998,1.9008999999999998,20.310000000000002,0.0,1.0
CN1CSC(=S)N(C)C1,water,298,-1.7331,mol/L,162.283,0.7967,6.48,0.0,3.0
OC(CI)CI,water,298,-1.3971,mol/L,311.888,1.2173,20.23,1.0,1.0
CNC(=S)NC,water,298,0.9823,mol/L,104.178,-0.28990000000000027,24.06,2.0,1.0
COC(C)OC,water,298,1.0452,mol/L,90.122,0.6252,18.46,0.0,2.0
CCCCC(C(O)=O)C(O)=O,water,298,0.4369,mol/L,160.16899999999998,0.962,74.6,2.0,2.0
CC(C)c1cccc(C)c1,water,298,-3.4994,mol/L,134.22199999999998,3.1184200000000013,0.0,0.0,0.0
CN(C)c1cc(C)nc(Cl)n1,water,298,-1.2615,mol/L,171.63099999999997,1.5044199999999999,29.020000000000003,0.0,3.0
OC(=O)c1cc(O)c(O)c(OC(=O)c2cc(O)c(O)c(O)c2)c1,water,298,-2.8092,mol/L,322.22499999999997,1.1319999999999995,164.75,6.0,8.0
CCc1ccncc1,water,298,-0.0006,mol/L,107.15599999999998,1.644,12.89,0.0,1.0
CN1C2CCC1CC(C2)OC(=O)c3ccccc3,water,298,-2.1593,mol/L,245.322,2.4686000000000003,29.54,0.0,3.0
ClN=C1C=C(Br)C(=O)C(=C1)Br,water,298,-3.7068,mol/L,299.34899999999993,2.7215,29.43,0.0,2.0
CN[C@@H](Cc1ccc(O)cc1)C(O)=O,water,298,-2.1325,mol/L,195.218,0.6072999999999997,69.56,3.0,3.0
CCN(CCCl)CCCl,water,298,-3.0265,mol/L,170.083,1.7858999999999998,3.24,0.0,1.0
CCCCOC(=O)/C=C/c1ccccc1,water,298,-1.6112,mol/L,204.269,3.0431000000000017,26.3,0.0,2.0
COCc1ccccc1,water,298,-1.6098,mol/L,122.16699999999996,1.8330000000000002,9.23,0.0,1.0
CN(C)c1ccc(cc1)N=Nc2ccc(N)cc2,water,298,-4.594,mol/L,240.30999999999997,3.750200000000002,53.980000000000004,1.0,4.0
OC(=O)/C=C/c1occc1,water,298,-1.8392,mol/L,138.12199999999999,1.3774,50.44,1.0,2.0
CCCCC(=O)OCC,water,298,-1.7706,mol/L,130.18699999999998,1.7397,26.3,0.0,2.0
CCCCCOC(=O)CCC,water,298,-3.4212,mol/L,158.24099999999996,2.5199000000000007,26.3,0.0,2.0
CCC(=O)OCC(C)C,water,298,-1.8841,mol/L,130.18699999999998,1.5956000000000001,26.3,0.0,2.0
COC1CC1,water,298,-0.1176,mol/L,72.10700000000001,0.7952,9.23,0.0,1.0
Br\C=C/Br,water,298,-1.3195,mol/L,185.84599999999998,2.2474,0.0,0.0,0.0
OCCBr,water,298,0.9032,mol/L,124.965,0.3736,20.23,1.0,1.0
CCOC,water,298,-0.0799,mol/L,60.096000000000004,0.6527000000000001,9.23,0.0,1.0
CNNC,water,298,1.2211,mol/L,60.10000000000001,-0.6598000000000002,24.06,2.0,2.0
CC(C)CC(C)(C)C,water,298,-4.6704,mol/L,114.23199999999999,3.0786000000000016,0.0,0.0,0.0
CC(=O)OC(C)(C)C,water,298,-1.1443,mol/L,116.16,1.3479999999999999,26.3,0.0,2.0
C[Si]1(C)O[Si](C)(C)O[Si](C)(C)O[Si](C)(C)O[Si](C)(C)O[Si](C)(C)O1,water,298,-7.9407,mol/L,444.9300000000002,4.310400000000003,55.38000000000001,0.0,6.0
C[Si]1(C)O[Si](C)(C)O[Si](C)(C)O[Si](C)(C)O[Si](C)(C)O1,water,298,-7.3387,mol/L,370.7750000000001,3.5920000000000023,46.150000000000006,0.0,5.0
Cl/C=C/[As](Cl)Cl,water,298,-2.6177,mol/L,207.31900000000002,2.2439,0.0,0.0,0.0
CCCC(Cl)Cl,water,298,-2.4036,mol/L,127.01400000000001,2.590200000000001,0.0,0.0,0.0
[Ba++].[O-]C=O.[O-]C=O,water,298,-0.0557,mol/L,227.362,-3.6486,80.25999999999999,0.0,4.0
CC(N)CC(O)=O,water,298,0.9867,mol/L,103.12099999999998,-0.19170000000000004,63.32,2.0,2.0
CC(=O)CC(O)=O,water,298,0.991,mol/L,102.08899999999998,0.05009999999999998,54.37,1.0,2.0
NC(=S)NC(N)=S,water,298,-1.6996,mol/L,135.217,-0.9367999999999999,64.07,3.0,2.0
CC1=CC(=O)CC(=O)O1,water,298,-1.1185,mol/L,126.11099999999999,0.4062,43.370000000000005,0.0,3.0
ClC1CCCCC1,water,298,-2.3752,mol/L,118.60700000000001,2.557900000000001,0.0,0.0,0.0
NC(CCCC(O)=O)C(O)=O,water,298,-1.8648,mol/L,161.15699999999998,-0.3468000000000003,100.62,3.0,3.0
CC(C)COC=O,water,298,-1.0006,mol/L,102.13299999999998,0.8154,26.3,0.0,2.0
CCCCI,water,298,-2.9587,mol/L,184.01999999999998,2.2215,0.0,0.0,0.0
ClC\C=C/Cl,water,298,-1.598,mol/L,110.971,1.9777,0.0,0.0,0.0
ClCOCCl,water,298,-0.7181,mol/L,114.959,1.3956,9.23,0.0,1.0
C1C=CC=C1,water,298,-1.565,mol/L,66.103,1.5025,0.0,0.0,0.0
NC(N)=NCC[S](O)(=O)=O,water,298,-0.6321,mol/L,167.19,-1.8523999999999994,118.77000000000001,3.0,3.0
CC(C)CO[N+]([O-])=O,water,298,-1.9521,mol/L,119.11999999999999,0.8507,52.37,0.0,3.0
CCCCCCl,water,298,-2.7324,mol/L,106.596,2.415400000000001,0.0,0.0,0.0
[Ba++].CC([O-])=O.CC([O-])=O,water,298,0.1948,mol/L,255.41599999999997,-2.8683999999999994,80.25999999999999,0.0,4.0
CC(C)CCOC(N)=O,water,298,-1.4403,mol/L,131.175,1.1278000000000001,52.32,1.0,2.0
CC(C)CCO[N+]([O-])=O,water,298,-2.4809,mol/L,133.147,1.2408,52.37,0.0,3.0
[Sr++].CC([O-])=O.CC([O-])=O,water,298,0.1446,mol/L,205.70799999999997,-2.8683999999999994,80.25999999999999,0.0,4.0
CC(C)CCOCCC(C)C,water,298,-2.8984,mol/L,158.285,3.095200000000002,9.23,0.0,1.0
CCCCCCCl,water,298,-3.1224,mol/L,120.623,2.805500000000001,0.0,0.0,0.0
N#CCCCC#N,water,298,1.0263,mol/L,94.117,1.20386,47.58,0.0,2.0
CCCCCCCCCCCCCCCC,water,298,-8.4007,mol/L,226.44799999999992,6.487600000000007,0.0,0.0,0.0
Nc1ccc(cc1)[S](=O)(=O)Nc2ccc(cc2)[S](N)(=O)=O,water,298,-2.7592,mol/L,327.38700000000006,0.7170000000000003,132.35,3.0,5.0
COC(=O)C(C)O,water,298,0.9825,mol/L,104.10499999999999,-0.45980000000000015,46.53,1.0,3.0
C=C1CCOC1=O,water,298,0.1844,mol/L,98.10099999999998,0.4895,26.3,0.0,2.0
C[C@H](CCC(O)=O)[C@H]1CC[C@H]2[C@@H]3[C@H](O)[C@H](O)[C@@H]4C[C@H](O)CC[C@]4(C)[C@H]3CC[C@]12C,water,298,-4.3465,mol/L,408.57900000000024,3.4487000000000023,97.99000000000001,4.0,4.0
CCOC(=O)C(C1=C(O)Oc2ccccc2C1=O)C3=C(O)Oc4ccccc4C3=O,water,298,-3.4264,mol/L,408.36200000000014,3.005600000000002,127.18,2.0,8.0
CC(C)c1ccc(C)c(C(O)=O)c1O,water,298,-3.2883,mol/L,194.22999999999996,2.5222200000000012,57.53,2.0,2.0
COc1ccc2nccc(C(O)C3CC4CCN3CC4C=C)c2c1.O[S](O)(=O)=O,water,298,-1.5924,mol/L,422.50300000000016,2.5204,120.19,3.0,6.0
CN1C(=O)C=C(N)N(CC(C)=C)C1=O,water,298,-0.9895,mol/L,195.22199999999998,-0.2947000000000004,70.02,1.0,5.0
OC[C@H]1O[C@H]([C@H](O)[C@@H]1O)n2cnc3cncnc23,water,298,-0.4018,mol/L,252.23000000000002,-1.5622000000000007,113.52,3.0,8.0
Oc1ccc2ccccc2c1[N+]([O-])=O,water,298,-2.9758,mol/L,189.16999999999996,2.4536000000000007,63.37,1.0,3.0
Cc1c(Cl)cc(Cl)c(O)c1Cl,water,298,-3.2761,mol/L,211.475,3.6608200000000006,20.23,1.0,1.0
OCC(C(O)=O)c1ccccc1,water,298,-0.9195,mol/L,166.176,0.8471000000000002,57.53,2.0,2.0
CN1C2CCCC1CC(=O)C2,water,298,0.4167,mol/L,153.225,1.2022000000000002,20.310000000000002,0.0,2.0
NNC(=O)c1cccnc1,water,298,-0.1372,mol/L,137.142,-0.3149000000000006,68.00999999999999,2.0,3.0
CCCOc1ccc(cc1N)[N+]([O-])=O,water,298,-3.1592,mol/L,196.20599999999996,1.9657999999999998,78.38999999999999,1.0,4.0
COC(=O)C(=O)OC,water,298,-0.2919,mol/L,118.088,-0.6676000000000002,52.60000000000001,0.0,4.0
CC1=C(N)NC(=O)N=C1,water,298,-0.5595,mol/L,125.13099999999999,-0.33948000000000017,71.77000000000001,2.0,3.0
CN1N=C(SC1=NC(C)=O)[S](N)(=O)=O,water,298,-1.8293,mol/L,236.278,-1.4237999999999995,107.41,1.0,6.0
Oc1cccc(c1)[N+]([O-])=O,water,298,-1.013,mol/L,139.10999999999999,1.3003999999999998,63.37,1.0,3.0
OC(=O)c1cc(cc(c1)C(O)=O)C(O)=O,water,298,-0.9026,mol/L,210.14099999999996,0.7811999999999999,111.9,3.0,3.0
C[C@](N)(Cc1ccc(O)c(O)c1)C(O)=O,water,298,-1.3247,mol/L,211.21699999999998,0.4423000000000001,103.78,4.0,4.0
OC(=O)\C=C/C(=O)Nc1ccccc1,water,298,-2.2815,mol/L,191.18600000000004,1.2658999999999998,66.39999999999999,2.0,2.0
[O-][N+](=O)c1oc(cc1)\C=N\N2CCNC2=O,water,298,-3.3572,mol/L,224.17599999999996,0.5468999999999999,100.97999999999999,1.0,5.0
N[C@H](Cc1ccc(O)cc1)C(O)=O,water,298,-2.6049,mol/L,181.19099999999997,0.3466,83.55000000000001,3.0,3.0
NC(Cc1ccc(O)cc1)C(O)=O,water,298,-2.6561,mol/L,181.19099999999997,0.3466,83.55000000000001,3.0,3.0
NCC(=O)NCC(=O)NCC(O)=O,water,298,-0.5097,mol/L,189.17099999999996,-2.737899999999999,121.52000000000001,4.0,4.0
[Zn++].CCCCC([O-])=O.CCCCC([O-])=O,water,298,-1.2722,mol/L,267.63999999999993,-0.14949999999999974,80.25999999999999,0.0,4.0
OCC1CO1,water,298,1.1303,mol/L,74.07900000000001,-0.6225,32.76,1.0,2.0
CN=C=S,water,298,-0.9832,mol/L,73.12,0.7190000000000001,12.36,0.0,2.0
C[Si]1(C)O[Si](C)(C)O[Si](C)(C)O[Si](C)(C)O1,water,298,-7.7732,mol/L,296.62,2.8736000000000015,36.92,0.0,4.0
NC(N)=N[N+]([O-])=O,water,298,-1.3739,mol/L,104.06899999999999,-1.5484999999999998,107.54000000000002,2.0,2.0
O=C1NC=CC=N1,water,298,0.6749,mol/L,96.089,-0.23009999999999997,45.75,1.0,2.0
CCCOC,water,298,-0.3857,mol/L,74.12299999999999,1.0428,9.23,0.0,1.0
CCCC(=O)OCC(O)CO,water,298,-1.335,mol/L,162.18499999999997,-0.3170999999999998,66.76,2.0,4.0
[Zn++].CC([O-])=O.CC([O-])=O,water,298,0.2179,mol/L,183.47799999999998,-2.490099999999999,80.25999999999999,0.0,4.0
C=CCOCC=C,water,298,-0.0206,mol/L,98.145,1.375,9.23,0.0,1.0
[Zn++].[O-]C=O.[O-]C=O,water,298,-0.4755,mol/L,155.42399999999998,-3.2702999999999998,80.25999999999999,0.0,4.0