Solute,Solvent,Temperature_K,Solubility,Units,MW,LogP,TPSA,HBD,HBA
OCC(O)COCC(O)CO,water,298,0.77943954,mol/L,166.173,-2.290599999999999,90.15,4.0,5.0
Cl.CC1=C(CCCl)C(=O)N2CCCCC2=N1,water,298,0.57976692,mol/L,263.16799999999995,2.09112,34.89,0.0,3.0
OCN1C(NC(=O)NCNC(=O)NC2N(CO)C(=O)NC2=O)C(=O)NC1=O,water,298,0.410835965,mol/L,388.29700000000014,-4.802299999999996,221.53999999999996,8.0,8.0
NCC(O)CO,water,298,1.040433953,mol/L,91.11,-1.7017,66.48,3.0,3.0
CC1(C)COC(=O)C1O,water,298,0.885579186,mol/L,130.143,-0.06969999999999993,46.53,1.0,3.0
Cc1[nH]ncc1,water,298,1.085625105,mol/L,82.10599999999998,0.7181199999999999,28.68,1.0,1.0
CC(=O)CC(N)=O,water,298,0.995227367,mol/L,101.105,-0.5492000000000001,60.160000000000004,1.0,2.0
OCC1COC(=O)O1,water,298,0.927794233,mol/L,118.088,-0.4859,55.760000000000005,1.0,4.0
CC(=O)N1CCOCC1,water,298,0.888875326,mol/L,129.159,-0.13490000000000002,29.540000000000003,0.0,2.0
OCCOCC(COCCO)OCCO,water,298,0.649261738,mol/L,224.25299999999996,-1.6182999999999987,88.38000000000001,3.0,6.0
[Cl-].C[N+](C)(C)C,water,298,0.960189446,mol/L,109.6,-2.673599999999997,0.0,0.0,0.0
CN(C)C(=O)CC(C)=O,water,298,0.888875326,mol/L,129.159,0.05369999999999986,37.38,0.0,2.0
CN(C)CCCNC=O,water,298,0.885419037,mol/L,130.191,-0.3159,32.34,1.0,2.0
CC(=O)N(CCN(C(C)=O)C(C)=O)C(C)=O,water,298,0.641593019,mol/L,228.248,-0.22360000000000002,74.76,0.0,4.0
CNC=O,water,298,1.228647734,mol/L,59.068000000000005,-0.6378000000000001,29.1,1.0,1.0
[Al+3].[Cl-].[Cl-].[Cl-],water,298,0.875036292,mol/L,133.341,-9.3688,0.0,0.0,0.0
[NH4+].[O-]C(=O)CS,water,298,0.96197626,mol/L,109.15000000000002,-0.9577000000000004,76.63,2.0,3.0
[NH4+].[S-]C#N,water,298,1.118478399,mol/L,76.12400000000001,0.3905799999999999,60.29,1.0,2.0
OCCN(CCO)CCO.OCCN(CCO)CCO.OC(=O)CCCCCCCCCCC(O)=O,water,298,0.276803833,mol/L,528.6840000000007,-0.4127999999999917,202.45999999999998,8.0,10.0
CN(CCCN)CCCN,water,298,0.837883859,mol/L,145.25,-0.3841999999999987,55.28,2.0,3.0
[Cl-].[Cs+],water,298,0.773766242,mol/L,168.358,-5.992,0.0,0.0,0.0
[OH-].[Cs+],water,298,0.824163602,mol/L,149.912,-3.1728,30.0,0.0,1.0
[Ca++].OCC1OB(O)OC1C(O)C(O)C([O-])=O.OCC2OB(O)OC2C(O)C(O)C([O-])=O,water,298,0.316972785,mol/L,481.97800000000024,-9.957600000000001,279.0199999999999,8.0,16.0
NCCO.NCCO.OC(O)=O,water,298,0.734729236,mol/L,184.192,-1.9027999999999987,150.03,6.0,5.0
[Cs+].[Cs+].[O-][S]([O-])(=O)=O,water,298,0.441443819,mol/L,361.8730000000001,-7.329999999999999,80.25999999999999,0.0,4.0
[K+].OC(=O)CCCCC(O)=O,water,298,0.732265228,mol/L,185.23999999999998,-2.2799999999999994,74.6,2.0,2.0
[Na+].[Na+].CCN(Cc1cccc(c1)[S]([O-])(=O)=O)c2ccc(cc2)N=Nc3ccc(N=Nc4cccc(c4)[S]([O-])(=O)=O)c5ccccc35,water,298,0.171543767,mol/L,673.6840000000003,1.5133000000000039,167.07999999999998,0.0,11.0
[Na+].[Na+].Nc1ccc(NNC2=C3C(=O)C=C(C=C3C=CC2=N)[S]([O-])(=O)=O)c(c1)[S]([O-])(=O)=O,water,298,0.316586399,mol/L,482.40700000000015,-6.120729999999996,205.39999999999998,4.0,11.0
CC(=O)OCCOCCOCCOC(C)=O,water,298,0.630324108,mol/L,234.24799999999996,0.14579999999999949,71.06,0.0,6.0
CCOC(=O)N1CCC(=O)CC1,water,298,0.766506387,mol/L,171.19599999999997,0.8078,46.61,0.0,3.0
CCC[NH2+]CC,water,298,1.054659457,mol/L,88.17399999999999,-0.020300000000000207,16.61,1.0,0.0
[Cl-].[Cl-].[Cl-].[In+3],water,298,0.655260037,mol/L,221.17700000000002,-9.3688,0.0,0.0,0.0
COC(=O)CC(C)=O,water,298,0.935107933,mol/L,116.116,0.13849999999999985,43.370000000000005,0.0,3.0
NC(=O)c1ccc[n+](c1)C2OC(CO[P]([O-])(=O)O[P](O)(=O)OCC3OC(C(O)C3O)n4cnc5c(N)ncnc45)C(O)C2O,water,298,0.178204894,mol/L,663.4300000000001,-3.647899999999995,321.09000000000003,7.0,18.0
CCCCCCCC[P](O)(O)=O,water,298,0.711726176,mol/L,194.211,2.5246000000000013,57.53,2.0,1.0
O=C1CCCCCO1,water,298,0.942546912,mol/L,114.144,1.1036000000000001,26.3,0.0,2.0
O=C1CCCO1,water,298,1.065047292,mol/L,86.09,0.3234,26.3,0.0,2.0
C1CCNCC1,water,298,1.069815348,mol/L,85.15,0.7599,12.03,1.0,1.0
[K+].[S-]C#N,water,298,1.012409699,mol/L,97.18299999999999,-2.98162,23.79,0.0,2.0
[K+].[O-][P](=O)(OCc1ccccc1)OCc2ccccc2,water,298,0.499854127,mol/L,316.334,-0.10759999999999925,58.59,0.0,4.0
[K+].[O-]C=O,water,298,1.075126551,mol/L,84.115,-4.629899999999999,40.129999999999995,0.0,2.0
OCC#C,water,298,1.25131592,mol/L,56.064,-0.3881000000000001,20.23,1.0,1.0
OCCCO,water,298,1.118643879,mol/L,76.095,-0.6389,40.46,2.0,2.0
Nc1ccccn1,water,298,1.026331925,mol/L,94.117,0.6638000000000001,38.91,1.0,2.0
OCc1cccnc1,water,298,0.962063804,mol/L,109.12799999999999,0.5739,33.120000000000005,1.0,2.0
[Na+].CCCCC(CC)C([O-])=O,water,298,0.779379433,mol/L,166.196,-2.0432999999999977,40.129999999999995,0.0,2.0
[Na+].COCCOCCOc1cc(Nc2c(C)cc(C)c(c2C)[S]([O-])(=O)=O)c3C(=O)c4ccccc4C(=O)c3c1N,water,298,0.239123102,mol/L,576.6030000000002,0.6629600000000034,157.07999999999998,2.0,10.0
[Na+].CCOC(=O)c1ccc([O-])cc1,water,298,0.725477312,mol/L,188.158,-2.059099999999998,49.36,0.0,3.0
[Na+].CCO[P]([S-])(=S)OCC,water,298,0.681477558,mol/L,208.22,-1.1652000000000002,18.46,0.0,4.0
[Na+].CC(C)CO[P]([S-])(=S)OCC(C)C,water,298,0.57785683,mol/L,264.32800000000003,0.10699999999999932,18.46,0.0,4.0
[Na+].[S-]C#N,water,298,1.091113043,mol/L,81.075,-2.98162,23.79,0.0,2.0
[Na+].[O-]C=O,water,298,1.167446383,mol/L,68.007,-4.629899999999999,40.129999999999995,0.0,2.0
[Na+].OC[S]([O-])=O,water,298,0.927790555,mol/L,118.08899999999998,-4.180699999999999,60.36,1.0,3.0
CC(C)COC(C)(C)C,water,298,0.885285625,mol/L,130.23099999999997,2.4575000000000005,9.23,0.0,1.0
C[N+](C)(C)C.OC(=O)c1ccccc1C([O-])=O,water,298,0.621109935,mol/L,239.271,0.0707000000000006,77.43,1.0,3.0
[OH-].C[N+](C)(C)C,water,298,1.040224269,mol/L,91.154,0.14559999999999995,30.0,0.0,1.0
[Na+].[Na+].[Na+].Cc1cc(N\N=C\2C=CC(=O)C(=C2)C([O-])=O)c(OCCC[S]([O-])(=O)=O)cc1N=Nc3ccc(cc3[S]([O-])(=O)=O)[N+]([O-])=O,water,298,0.161450613,mol/L,689.5240000000003,-7.868080000000017,273.08,1.0,16.0
[Zn++].[O-][P]([O-])([O-])=O.[O-][P]([O-])([O-])=O,water,298,0.592898155,mol/L,255.32999999999996,-5.6517,172.5,0.0,8.0
COCC(C)OC(C)=O,water,298,-0.121096744,mol/L,132.159,0.5844,35.53,0.0,3.0
CC1(C)CC(O)CC(C)(C)N1,water,298,-0.196609986,mol/L,157.257,1.2878999999999998,32.26,2.0,2.0
NCCN1CCNCC1,water,298,-0.111286043,mol/L,129.207,-1.1496999999999988,41.29,2.0,3.0
CC(C)OCCO,water,298,-0.017655104,mol/L,104.149,0.4037,29.46,1.0,2.0
NC(=O)CCNCCO,water,298,-0.121109888,mol/L,132.163,-1.5563,75.35000000000001,3.0,3.0
CCN(CC)c1ccc(cc1)[C+](c2ccccc2)c3ccc(cc3)N(CC)CC.CC([O-])=O,water,298,-0.647988018,mol/L,444.61900000000026,5.154390000000005,46.61,0.0,4.0
OCCCCO,water,298,0.045169179,mol/L,90.122,-0.24880000000000008,40.46,2.0,2.0
CO[P](C)(=O)OC,water,298,-0.093687784,mol/L,124.07599999999998,1.1020999999999999,35.53,0.0,3.0
CO[P+](=O)OC,water,298,-0.037589826,mol/L,109.04099999999998,0.9365999999999999,35.53,0.0,3.0
[Na+].COc1ccc(cc1)N=Nc2ccc(cc2OC)N=Nc3cccc(c3)[S]([O-])(=O)=O,water,298,-0.65170047,mol/L,448.43600000000015,2.442700000000001,125.1,0.0,9.0
[Cr].CC([O-])=O,water,298,-0.045479453,mol/L,111.03999999999999,-1.2463000000000002,40.129999999999995,0.0,2.0
CN(C)[P+](CC1CCCCC1)(N(C)C)N(C)C.F[B-](F)(F)F,water,298,-1.507143452,mol/L,347.18999999999994,4.314100000000004,9.72,0.0,3.0
FC(F)(F)C(F)(F)C(=O)C(F)(C(F)(F)F)C(F)(F)F,water,298,-1.499743427,mol/L,316.04099999999994,3.5859999999999994,17.07,0.0,1.0
[Cl-].[Cl-].[Cl-].[Cl-].[Pd++].[H+].[H+],water,298,-1.398370615,mol/L,250.24800000000005,-11.761499999999998,0.0,0.0,0.0
[Pd++].[O-][N+]([O-])=O.[O-][N+]([O-])=O,water,298,-1.36253525,mol/L,230.42799999999997,-0.4807000000000001,132.4,0.0,6.0
[Na+].[Na+].[Na+].[Na+].[O-][S](=O)(=O)c1ccc(c(c1)N=Nc2ccc(N=Nc3ccc(N\N=C4/C(=O)C(=Cc5cc(Nc6ccccc6)ccc45)[S]([O-])(=O)=O)c7ccccc37)c8cc(ccc28)[S]([O-])(=O)=O)[S]([O-])(=O)=O,water,298,-2.023633484,mol/L,1055.9260000000002,-4.4193000000000024,331.72999999999996,2.0,20.0
[O-][N+](=O)c1ccccc1,water,298,-1.80473955,mol/L,123.11099999999996,1.5948,43.14,0.0,2.0
CC(=C)C(=O)OCCN1CCNC1=O,water,298,-2.297151854,mol/L,198.22199999999998,0.13090000000000007,58.64,1.0,3.0
OCCN(CCO)C(=O)CCCCCCCCC=C,water,298,-2.761513586,mol/L,271.4009999999999,2.1063999999999994,60.77,2.0,3.0
O=[Cu],water,298,-2.53888505,mol/L,79.545,-0.1213,17.07,0.0,1.0
CC(C)=CCCC(C)(OC=O)C=C,water,298,-4.040590426,mol/L,182.263,2.850500000000001,26.3,0.0,2.0
O=C1NC(=CC=N1)NC(=O)c2ccccc2,water,298,-5.159680215,mol/L,215.21200000000002,1.0222,74.85,2.0,3.0
Nc1c(I)c(C([O-])=O)c(I)c(C([O-])=O)c1I,water,298,-1.569622787,mol/L,556.8190000000002,-0.1903999999999999,106.28,1.0,5.0
CCCCCCCCCCCCc1ccccc1[S](O)(=O)=O.CC(C)(N)CO,water,298,0.213791577,mol/L,415.64000000000016,5.112700000000005,100.62,3.0,4.0
OC(=O)\C=C/C(=O)OCCOCCOCCOC(=O)\C=C/C(O)=O,water,298,0.159532562,mol/L,346.288,-0.6123999999999994,145.66,2.0,8.0
CC1(C)CC(=O)CC(C)(C1)C#N,water,298,-1.527023181,mol/L,165.236,2.2954800000000004,40.86,0.0,2.0
[Na+].[Na+].CC(CCO[S](=O)(=O)c1ccccc1)[N-]c2ccc([N-]C(C)CCO[S](=O)(=O)c3ccccc3)c4C(=O)c5ccccc5C(=O)c24,water,298,-0.437646111,mol/L,706.7500000000002,0.8486000000000073,149.07999999999998,0.0,8.0
[Ce].[Ce].[O-]C(=O)C([O-])=O,water,298,-3.151169408,mol/L,368.25000000000017,-3.5138000000000003,80.25999999999999,0.0,4.0
[Na+].[Cr+3].[O-]c1cc(c2ccccc2c1N=Nc3ccc4cccc(c4c3[O-])[S]([O-])(=O)=O)[S]([O-])(=O)=O,water,298,-1.171951452,mol/L,545.4260000000003,-0.6346999999999992,185.23999999999998,0.0,10.0
Fc1cccc2CC(=O)Nc12,water,298,-2.225136908,mol/L,151.14,1.3203,29.1,1.0,1.0
CC(C)CCCCCCCOCCCNCCCN,water,298,-3.204880928,mol/L,272.477,3.328100000000001,47.28,2.0,3.0
O=C1CCCCCCCCCCCC(=O)OCCO1,water,298,-4.196428448,mol/L,270.3689999999999,3.377500000000002,52.60000000000001,0.0,4.0
[Na+].[Na+].Nc1ccc(N=Nc2ccc(NC(=O)c3ccc(cc3)N=Nc4c(N)c5C(=O)C(=N/Nc6ccccc6)/C(=Cc5cc4[S]([O-])(=O)=O)[S]([O-])(=O)=O)cc2)c(N)c1,water,298,-1.340682714,mol/L,824.7690000000002,-0.02109999999999379,312.46,5.0,17.0
[Ce].[Ce].[O-]C(=O)C([O-])=O,water,298,-4.873295836,mol/L,368.25000000000017,-3.5138000000000003,80.25999999999999,0.0,4.0
[Ce].[Ce].[O-]C(=O)C([O-])=O,water,298,-5.118984724,mol/L,368.25000000000017,-3.5138000000000003,80.25999999999999,0.0,4.0
[Sr++].[O-][Ti]([O-])=O,water,298,-4.933184426,mol/L,183.48399999999998,-2.8801,63.19,0.0,3.0
[Sr++].[O-][Ti]([O-])=O,water,298,-5.254998028,mol/L,183.48399999999998,-2.8801,63.19,0.0,3.0
[Ce].[Ce].[O-]C(=O)C([O-])=O,water,298,-5.789441572,mol/L,368.25000000000017,-3.5138000000000003,80.25999999999999,0.0,4.0
[OH-].[OH-].[OH-].[Cl-].[Cu++].[Cu++],water,298,-5.60937281,mol/L,213.566,-3.5314000000000005,90.0,0.0,3.0
CCCCCCC(=O)OCC(CC)(CO)COC(=O)CCCC,water,298,-5.982567027,mol/L,330.46500000000015,3.6221000000000023,72.83000000000001,1.0,5.0
[OH-].[OH-].[OH-].[Cl-].[Cu++].[Cu++],water,298,-5.83537752,mol/L,213.566,-3.5314000000000005,90.0,0.0,3.0
CCCCCCCC[Sn]1(CCCCCCCC)OC(=O)CS1,water,298,-6.445626155,mol/L,435.2620000000004,6.439600000000007,26.3,0.0,3.0
CCOC(=O)C1CCC(CC1)C(=O)OCC,water,298,-2.251273114,mol/L,228.28799999999993,1.919,52.60000000000001,0.0,4.0
CCCC[Sn](CCCC)(CCCC)CCCC,water,298,-6.55647141,mol/L,347.1750000000002,6.635600000000007,0.0,0.0,0.0
[Sr++].[O-][Ti]([O-])=O,water,298,-6.5279993,mol/L,183.48399999999998,-2.8801,63.19,0.0,3.0
ClCCCN1CCOCC1,water,298,0.786089298,mol/L,163.648,0.9475,12.47,0.0,2.0
[Sr++].[O-][Ti]([O-])=O,water,298,-7.111309855,mol/L,183.48399999999998,-2.8801,63.19,0.0,3.0
[Y+3].[O-][N+]([O-])=O.[O-][N+]([O-])=O.[O-][N+]([O-])=O,water,298,0.545324138,mol/L,274.918,-0.7198000000000002,198.6,0.0,9.0
CC1=C(C#N)C(=O)N(CCC(O)=O)C(=C1)O,water,298,-1.443654068,mol/L,222.2,0.20869999999999977,103.32000000000001,2.0,5.0
CC1=C(C(N)=O)C(=O)N(CCC(O)=O)C(=C1)O,water,298,-1.602448873,mol/L,240.21499999999997,-0.5640800000000006,122.62000000000002,3.0,5.0
[Y+3].[O-][N+]([O-])=O.[O-][N+]([O-])=O.[O-][N+]([O-])=O,water,298,0.312845272,mol/L,274.918,-0.7198000000000002,198.6,0.0,9.0
[Sm+3].[O-][N+]([O-])=O.[O-][N+]([O-])=O.[O-][N+]([O-])=O,water,298,0.213542852,mol/L,336.3720000000001,-0.7173000000000003,198.6,0.0,9.0
[Y+3].[O-][N+]([O-])=O.[O-][N+]([O-])=O.[O-][N+]([O-])=O,water,298,0.264947341,mol/L,274.918,-0.7198000000000002,198.6,0.0,9.0
CCCCCCCC(=O)NCCCC[C@H](N)C(O)=O,water,298,0.057570824,mol/L,272.38899999999995,2.0453,92.42000000000002,3.0,3.0
[Na+].[Na+].[Na+].[Na+].[O-][P]([O-])(=O)O[P]([O-])([O-])=O,water,298,-0.194271049,mol/L,265.90099999999995,-15.3236,135.61,0.0,7.0
[Na+].[Na+].[Na+].[O-]O[P]([O-])(=O)CC([O-])=O,water,298,0.301076949,mol/L,221.97599999999994,-12.406400000000001,112.54999999999998,0.0,6.0
[H+].[Cl-].CN(C\C=C\C#CC(C)(C)C)Cc1cccc2ccccc12,water,298,-1.68966529,mol/L,327.89900000000006,1.9937999999999996,3.24,0.0,1.0
[H+].[Cl-].CN(C\C=C\C#CC(C)(C)C)Cc1cccc2ccccc12,water,298,-1.719860075,mol/L,327.89900000000006,1.9937999999999996,3.24,0.0,1.0
[Na+].[K+].Nc1c(cc(NC2CCC(CC2)Nc3nc(F)nc(Nc4cc(ccc4[S]([O-])(=O)=O)[S]([O-])(=O)=O)n3)c5C(=O)c6ccccc6C(=O)c15)[S]([O-])(=O)=O,water,298,-0.75694657,mol/L,822.8280000000001,-4.332599999999991,306.52,4.0,18.0
[Cl-].CCN(CC)c1ccc(cc1)/C=C(C#N)/C(=O)OCCC[N+](C)(C)CCOC(=O)\C(=C\c2ccc(cc2)N(CC)CC)C#N,water,298,-0.803618922,mol/L,636.2370000000001,2.4500600000000032,106.66,0.0,8.0
FC(F)(F)[S](=O)(=O)N[S](=O)(=O)C(F)(F)F,water,298,0.454144176,mol/L,281.155,0.27520000000000006,80.31,1.0,4.0
[Na+].[Cr+3].Cc1nn(c([O-])c1N=Nc2cc(Cl)cc(c2[O-])[S]([O-])(=O)=O)c3cccc(c3)[S]([O-])(=O)=O,water,298,-1.133167485,mol/L,559.8410000000002,-1.7935799999999973,203.05999999999997,0.0,12.0
CCCCOC(=O)CC(CC(=O)OCCCC)(OC(C)=O)C(=O)OCCCC,water,298,-2.604748621,mol/L,402.4840000000002,3.0984000000000016,105.2,0.0,8.0
Nc1ccc(Cl)c(Cl)c1,water,298,-2.209565947,mol/L,162.019,2.5756000000000006,26.02,1.0,1.0
CC(C)c1ccc(C=O)cc1,water,298,-2.170862856,mol/L,148.20499999999998,2.6225000000000014,17.07,0.0,1.0
CCCCCCCC\C=C/CCCCCCCCOCCO,water,298,-2.494902829,mol/L,312.538,6.032800000000007,29.46,1.0,2.0
CC(C)(C)c1cc(CCC(O)=O)cc(n2nc3ccccc3n2)c1O,water,298,-5.53070544,mol/L,339.39500000000004,3.4408000000000025,88.24,2.0,5.0
CCCCCCCC(=O)SCCC[Si](OCC)(OCC)OCC,water,298,-3.11468722,mol/L,364.6240000000002,5.045200000000005,44.760000000000005,0.0,5.0
C\C=C/C=C.C/C=C/C=C.C1CC=CC1,water,298,-3.009359523,mol/L,204.35699999999994,5.223500000000005,0.0,0.0,0.0
CCCCCCC(O)CCCCCCCCCCC(=O)OCC(O)CO,water,298,-3.397432456,mol/L,374.562,4.115100000000004,86.99000000000001,3.0,5.0
CCN(CC)C1=C[C@@H]2Oc3cc(N(CC)CC)c(C)cc3C(=C2C=C1C)c4ccccc4C(=O)OC,water,298,-7.687222082,mol/L,486.65600000000023,6.376320000000008,42.010000000000005,0.0,5.0
CCOC(=O)CC(NC1CCC(CC1)CC2CCC(CC2)NC(CC(=O)OCC)C(=O)OCC)C(=O)OCC,water,298,-3.744077739,mol/L,554.7250000000003,3.443100000000003,129.26000000000002,2.0,10.0
CC(CC(C)(C)C)CC(C)(C)CC(C)(C)C,water,298,-3.354968489,mol/L,226.44799999999995,5.911200000000006,0.0,0.0,0.0
CCCCCCCCCCCCCCC1CO1,water,298,-3.380990463,mol/L,240.43099999999993,5.476400000000005,12.53,0.0,1.0
COCC(NC(C)=O)C(=O)NCc1ccccc1,water,298,-3.398457379,mol/L,250.298,0.4539000000000007,67.42999999999999,2.0,3.0
C1CCC\C=C/CC1,water,298,-3.042181595,mol/L,110.19999999999999,2.8968000000000016,0.0,0.0,0.0
CCCCOCC(C)OCC(C)O,water,298,-0.653059623,mol/L,190.283,1.589,38.69,1.0,3.0
CCCCCCCCCCCCCCCCCCC(O)=O,water,298,-3.775990335,mol/L,298.5109999999999,6.722600000000007,37.3,1.0,1.0
CCCCCCCCCCCCCCCCC(O)=O,water,298,-3.733128222,mol/L,270.45699999999994,5.9424000000000055,37.3,1.0,1.0
CCCCCCCCCCCCCCCCCC(O)=O,water,298,-3.755087841,mol/L,284.4839999999999,6.332500000000007,37.3,1.0,1.0
CCOC(C)(C)CC,water,298,-1.471935011,mol/L,116.204,2.2115,9.23,0.0,1.0
CC(CO)CC(C)c1ccccc1,water,298,-2.346916077,mol/L,178.275,2.808600000000001,20.23,1.0,1.0
CC(CO)CC(C)c1ccccc1,water,298,-2.347457929,mol/L,178.275,2.808600000000001,20.23,1.0,1.0
CC(CO)CC(C)c1ccccc1,water,298,-2.348000458,mol/L,178.275,2.808600000000001,20.23,1.0,1.0
CC(CO)CC(C)c1ccccc1,water,298,-2.349632124,mol/L,178.275,2.808600000000001,20.23,1.0,1.0
Nc1c(Oc2ccccc2)cc(O)c3C(=O)c4ccccc4C(=O)c13,water,298,-4.219226833,mol/L,331.32700000000006,3.5421000000000014,89.62,2.0,5.0
CCn1nc2cc(cc3C(=O)c4ccccc4c1c23)c5cc6nn(CC)c7c8ccccc8C(=O)c(c5)c67,water,298,-4.393183723,mol/L,494.55400000000026,6.515600000000005,69.78,0.0,6.0
O=C1c2ccccc2C(=O)c3c4[nH]c5c6C(=O)c7ccccc7C(=O)c6c8[nH]c9c(ccc%10C(=O)c%11ccccc%11C(=O)c9%10)c8c5c4ccc13,water,298,-4.509615108,mol/L,646.614,6.349400000000004,133.99999999999997,2.0,6.0
[O-][N+](=O)c1cc2c3ccccc3C(=O)c4ccc5c6ccc7C(=O)c8ccccc8c9ccc(c6c79)c1c5c24,water,298,-4.399238344,mol/L,501.4970000000003,8.068200000000001,77.28,0.0,4.0
CCOc1ccc(Nc2ccc(cc2[N+]([O-])=O)[S](=O)(=O)N(C)C)cc1,water,298,-4.261751621,mol/L,365.4110000000001,2.987400000000002,101.77999999999999,1.0,6.0
O=C(Nc1cc2c([nH]c3c2cc(NC(=O)c4ccccc4)c5C(=O)c6ccccc6C(=O)c35)c7C(=O)c8ccccc8C(=O)c17)c9ccccc9,water,298,-4.522223117,mol/L,665.6610000000003,6.754900000000005,142.26999999999998,3.0,6.0
Brc1ccc2c3cc4ccc5C(=O)c6ccccc6c7cc8ccc(C(=O)c2c1Br)c3c8c4c57,water,298,-4.450427718,mol/L,564.232,8.3178,34.14,0.0,2.0
COc1ccc(cc1)C(CN(C)C)C2(O)CCCCC2,water,298,0.290880305,mol/L,277.408,3.0356000000000014,32.7,1.0,3.0
COc1ccc(cc1)C(CN(C)C)C2(O)CCCCC2,water,298,0.289274779,mol/L,277.408,3.0356000000000014,32.7,1.0,3.0
COc1ccc(cc1)C(CN(C)C)C2(O)CCCCC2,water,298,0.256718745,mol/L,277.408,3.0356000000000014,32.7,1.0,3.0
COc1ccc(cc1)C(CN(C)C)C2(O)CCCCC2,water,298,-1.10866523,mol/L,277.408,3.0356000000000014,32.7,1.0,3.0
[Na+].[Na+].[Cr].[Cr].Oc1ccc2ccccc2c1N\N=C/3C(=O)C=C(c4cc(ccc34)[N+]([O-])=O)[S](O)(=O)=O.Oc5ccc6ccccc6c5N\N=C/7C(=O)C=C(c8cc(ccc78)[N+]([O-])=O)[S]([O-])(=O)=O.Oc9ccc%10ccccc%10c9N\N=C/%11C(=O)C=C(c%12cc(ccc%11%12)[N+]([O-])=O)[S]([O-])(=O)=O,water,298,-5.166184625,mol/L,1466.1710000000003,2.5614000000000043,483.25999999999993,7.0,26.0
CCCCCCCCCCCCOC(=O)C=C,water,298,-4.380910978,mol/L,240.38699999999994,4.636500000000004,26.3,0.0,2.0
[O--].[O--].[O--].[Al+3].[Y+3],water,298,-4.214539206,mol/L,163.885,-0.7397,85.5,0.0,0.0
[Rh+3].[I-].[I-].[I-],water,298,-4.684502457,mol/L,483.618,-8.9905,0.0,0.0,0.0
CCCCCCCCCCCCCCOC(=O)C=C,water,298,-4.428848848,mol/L,268.441,5.416700000000005,26.3,0.0,2.0
ClC1=C(Cl)C2(Cl)C3C(C(=O)OC3=O)C1(Cl)C2(Cl)Cl,water,298,-5.171234853,mol/L,370.83000000000004,3.1477000000000004,43.370000000000005,0.0,3.0
COc1cc(N=Nc2c(Cl)cc(cc2[N+]([O-])=O)[N+]([O-])=O)c(NC(C)=O)cc1N(CCOC(C)=O)CCOC(C)=O,water,298,-5.46309979,mol/L,580.9380000000003,4.471400000000004,205.17,1.0,13.0
CCCCN(C1CC(C)(C)N(C)C(C)(C)C1)c2nc(NCCCN(CCN(CCCNc3nc(nc(n3)N(CCCC)C4CC(C)(C)N(C)C(C)(C)C4)N(CCCC)C5CC(C)(C)N(C)C(C)(C)C5)c6nc(nc(n6)N(CCCC)C7CC(C)(C)N(C)C(C)(C)C7)N(CCCC)C8CC(C)(C)N(C)C(C)(C)C8)c9nc(nc(n9)N(CCCC)C%10CC(C)(C)N(C)C(C)(C)C%10)N(CCCC)C%11CC(C)(C)N(C)C(C)(C)C%11)nc(n2)N(CCCC)C%12CC(C)(C)N(C)C(C)(C)C%12,water,298,-6.057984673,mol/L,2285.675999999996,25.807200000000055,237.06,2.0,32.0
COC(=O)c1sc(N)c(C#N)c1C,water,298,-4.991737621,mol/L,196.231,1.2970000000000002,76.11,1.0,5.0
CCCCCCCCCCCCCCCCCC[P](=O)(OC)OC,water,298,-5.529966163,mol/L,362.535,7.7338000000000084,35.53,0.0,3.0
CCCCCCCC\C=C/CCCCCCCC(=O)NCC(C)O,water,298,-5.530921641,mol/L,339.56399999999996,5.520900000000006,49.33,2.0,2.0
[Al+3].[O-][P]([O-])(=O)O[P]([O-])(=O)O[P]([O-])([O-])=O,water,298,-5.668842338,mol/L,279.894,-4.2354,184.97,0.0,10.0
CC(C)(O)C(=O)c1ccc(cc1)C2(C)CC(C)(C)c3cc(ccc23)C(=O)C(C)(C)O,water,298,-5.93729046,mol/L,408.5380000000002,4.5811000000000055,74.6,2.0,4.0
CC(C)(O)C(=O)c1ccc(cc1)C2(C)CC(C)(C)c3ccc(cc23)C(=O)C(C)(C)O,water,298,-5.963849488,mol/L,408.5380000000002,4.5811000000000055,74.6,2.0,4.0
[Al+3].[O-][P]([O-])(=O)O[P]([O-])(=O)O[P]([O-])([O-])=O,water,298,-5.915514672,mol/L,279.894,-4.2354,184.97,0.0,10.0
CCCCCCCCCCCCCCCCCCOC(=O)CCc1cc(c(O)c(c1)C(C)(C)C)C(C)(C)C,water,298,-6.423964733,mol/L,530.8780000000003,10.724499999999992,46.53,1.0,3.0
CC(C)=CCC\C(C)=C\CCC(=C)C=C,water,298,-6.310389519,mol/L,204.35699999999994,5.201500000000005,0.0,0.0,0.0
Cc1cccc(C)c1O[P](=O)(Oc2cccc(O[P](=O)(Oc3c(C)cccc3C)Oc4c(C)cccc4C)c2)Oc5c(C)cccc5C,water,298,-6.836753134,mol/L,686.6780000000001,11.443759999999989,89.52000000000001,0.0,8.0
CCCCC1CCC(CC1)C2CCC(=O)CC2,water,298,-6.373645635,mol/L,236.39899999999992,4.742300000000005,17.07,0.0,1.0