Solute,Solvent,Temperature_K,Solubility,Units,MW,LogP,TPSA,HBD,HBA
CCCCCCCCCCCCCCOC(=O)\C=C\C(=O)OCCCCCCCCCCCCCC,water,298,-7.007600998,mol/L,508.8280000000006,10.031199999999997,52.60000000000001,0.0,4.0
CCCCCCCCCCCCCCCCCCCCCC(N)=O,water,298,-6.832007908,mol/L,339.60800000000006,7.293600000000008,43.09,1.0,1.0
CCCCCCCCCCCCCCCCCCCCCCOC(=O)CCCCCCCCCCCCCCCCCCCCC,water,298,-7.113399141,mol/L,649.1859999999999,16.17339999999996,26.3,0.0,2.0
CCCCCCCCCCCCOC(=O)CCCCCCC\C=C\CCCCCCCC,water,298,-6.955006196,mol/L,450.7920000000004,10.487999999999992,26.3,0.0,2.0
CCCCCCCCCCCCCCCC(=O)OCC.CCCCCCCCCCCCCC(=O)OCC.CCCCCCCC\C=C/CCCCCCCC(=O)OCC.CCCCCC\C=C/CCCCCCCC(=O)OCC,water,298,-7.355606283,mol/L,1133.9039999999989,23.675200000000025,105.20000000000003,0.0,8.0
CCCCCCCCCCCCCCCCOC(=O)C(CC)CCCC,water,298,-6.867639522,mol/L,368.64600000000013,8.227300000000008,26.3,0.0,2.0
CCCCCCCCCCCC(=O)OCCCCCC,water,298,-6.755087841,mol/L,284.484,6.030800000000006,26.3,0.0,2.0
CC(C)CCCCCCCCCCCCCCC(=O)OC(CO)CO,water,298,-6.855595469,mol/L,358.56300000000005,5.000200000000006,66.76,2.0,4.0
[O--].[O--].[O--].[O--].[O--].[O--].[O--].[Mg++].[Mg++].[Nb+5].[Nb+5],water,298,-6.840626685,mol/L,346.415,-1.5982,199.5,0.0,0.0
CCCCCCCC\C=C/CCCCCCCCCCCC(=O)OCCCCCCCC\C=C/CCCCCCCC,water,298,-7.071179207,mol/L,589.0460000000002,14.164999999999969,26.3,0.0,2.0
CCCCCCCCC\C=C/CCCCCCC(=O)OCCCCCCCC\C=C/CCCCCCCC,water,298,-7.027706683,mol/L,532.9380000000006,12.60459999999998,26.3,0.0,2.0
CCCCCCCCOC(=O)CCCCCCC,water,298,-6.709998828,mol/L,256.4299999999999,5.250600000000006,26.3,0.0,2.0
CCCCCCCCCCCCCCOC(=O)CCCCCCC\C=C/CCCCCCCC,water,298,-6.98122586,mol/L,478.8460000000005,11.268199999999988,26.3,0.0,2.0
CCCCC(CC)COC(=O)CC(CC(=O)OCC(CC)CCCC)(OC(C)=O)C(=O)OCC(CC)CCCC,water,298,-7.057520047,mol/L,570.8080000000001,7.3473000000000095,105.2,0.0,8.0
[Zr],water,298,-6.261139107,mol/L,91.224,-0.0025,0.0,0.0,0.0
CC(C)(c1ccccc1)c2cc(n3nc4ccccc4n3)c(O)c(c2)C(C)(C)c5ccccc5,water,298,-7.048812621,mol/L,447.58200000000016,6.777900000000007,50.94,1.0,4.0
CC(CC(c1cc(c(O)cc1C)C(C)(C)C)c2cc(c(O)cc2C)C(C)(C)C)c3cc(c(O)cc3C)C(C)(C)C,water,298,-7.134193051,mol/L,544.8200000000003,9.946859999999996,60.69,3.0,3.0
CCCCC(CC)CNC(=O)c1ccc(N\N=C2\C(=C(C#N)C(=O)N(C)C2=O)C)cc1,water,298,-7.024810856,mol/L,423.5170000000002,3.2393800000000015,114.66,2.0,6.0
CN1C(=O)C(=N/Nc2ccc(Cl)c(Cl)c2)/C(=C(C#N)C1=O)C,water,298,-6.925783782,mol/L,337.16600000000017,2.5999800000000004,85.56,1.0,5.0
CC(C)(C)c1cc(CN2C(=O)N(Cc3cc(c(O)c(c3)C(C)(C)C)C(C)(C)C)C(=O)N(Cc4cc(c(O)c(c4)C(C)(C)C)C(C)(C)C)C2=O)cc(c1O)C(C)(C)C,water,298,-7.292308693,mol/L,784.095,9.218400000000003,126.69000000000001,3.0,9.0
OC(COc1ccc(c(O)c1)C(=O)c2ccccc2)COc3ccc(c(O)c3)C(=O)c4ccccc4,water,298,-7.138754703,mol/L,484.50400000000025,4.378500000000003,113.28999999999999,3.0,7.0
CCCCCCCCCCCCCNCCCCCCCCCCCCC.CCCCCCCCCCCCCNCC(C)CCCCCCCCCC,water,298,-7.405668446,mol/L,763.4659999999997,18.25189999999998,24.06,2.0,2.0
CN(C\C=C\C#CC(C)(C)C)Cc1cccc2ccccc12,water,298,-4.464546178,mol/L,291.438,4.877300000000004,3.24,0.0,1.0
CCCCCCCCCC(C)(C)SSC(C)(C)CCCCCCCCC,water,298,-7.127966051,mol/L,402.7980000000004,10.206399999999995,0.0,0.0,2.0
CCCCC(CC)COC(=O)OCC(CC)CCCC,water,298,-6.979936669,mol/L,286.456,5.572400000000006,35.53,0.0,3.0
C,water,298,-5.728164329,mol/L,16.043,0.6361,0.0,0.0,0.0
O=[P](OCc1ccccc1)(OCc2ccccc2)O[P](=O)(OCc3ccccc3)OCc4ccccc4,water,298,-7.254042677,mol/L,538.4730000000003,8.086400000000006,80.29,0.0,7.0
CC(C)(c1ccc(Oc2ccc(N)cc2)cc1)c3ccc(Oc4ccc(N)cc4)cc3,water,298,-7.19172722,mol/L,410.51700000000017,6.761500000000004,70.5,2.0,4.0
S=[Zn],water,298,-6.589139317,mol/L,97.457,0.6457,0.0,0.0,1.0
CCCCCCCCCCCCCCCCCC(=O)O[Al](O)OC(=O)c1ccccc1,water,298,-7.253899898,mol/L,448.5800000000001,6.625300000000007,72.83000000000001,1.0,5.0
CCN(CC)c1ccc2C=C3C(=C(C#N)C(=O)n4c5ccccc5nc34)Oc2c1,water,298,-7.202332762,mol/L,382.42300000000006,4.464980000000003,74.54,0.0,6.0
CCN(CC)c1ccc(N=Nc2c(cc(C)cc2C#N)C#N)c(N[S](C)(=O)=O)c1,water,298,-7.233105094,mol/L,410.5030000000001,4.371480000000004,121.70999999999998,1.0,7.0
CCCCCCCCCCCCCCCCCC(=O)OC.CCCCCCCCCCCCCCCC(=O)OC.CCCCCCCC\C=C/CCCCCCCC(=O)OC.CCCCC/C=C\C\C=C/CCCCCCCC(=O)OC.CC/C=C/C/C=C/C/C=C/CCCCCCCC(=O)OC,water,298,-7.800359899,mol/L,1452.4049999999995,29.98030000000008,131.50000000000003,0.0,10.0
CC(=O)OCCN(CCOC(C)=O)c1ccc(cc1)N=Nc2ccc(cc2C#N)[N+]([O-])=O,water,298,-7.300465046,mol/L,439.42800000000017,3.8144800000000023,147.48999999999998,0.0,10.0
FC(F)(F)C(F)(F)C(F)(F)C(F)(F)C(F)(F)C(F)(F)C(F)(F)C(F)(F)Br,water,298,-7.397033995,mol/L,498.95799999999997,6.348200000000002,0.0,0.0,0.0
CCN(CCC#N)c1ccc(cc1)N=Nc2ccc(cc2)[N+]([O-])=O,water,298,-7.208650928,mol/L,323.35600000000005,4.750180000000004,94.88999999999999,0.0,6.0
Cc1cc(C)cc(c1)N2C(=O)c3ccc4c5ccc6C(=O)N(c7cc(C)cc(C)c7)C(=O)c8ccc(c9ccc(C2=O)c3c49)c5c68,water,298,-7.476148795,mol/L,598.6580000000001,8.572080000000001,74.76,0.0,4.0
[O--].[O--].[O--].[Bi+3].[Bi+3],water,298,-7.367315845,mol/L,465.957,-1.118,85.5,0.0,0.0
[NH4+].[Fe++].[Fe+3].[C-]#N.[C-]#N.[C-]#N.[C-]#N.[C-]#N.[C-]#N,water,298,-7.155088449,mol/L,285.837,0.9494199999999997,179.23999999999998,1.0,6.0
CCN(CCC(=O)OC)c1ccc(cc1)N=Nc2snc3ccc(cc23)[N+]([O-])=O,water,298,-7.315402454,mol/L,413.4590000000001,5.009300000000004,110.29000000000002,0.0,9.0
CCCCCCCCCCCCCCOC(=O)CCCCCCCCCCCCC,water,298,-7.327107482,mol/L,424.7540000000004,9.931799999999997,26.3,0.0,2.0
CCCC1CCC(CC1)c2ccc(cc2)c3ccc(CC)cc3,water,298,-7.185390564,mol/L,306.4930000000001,6.9899000000000076,0.0,0.0,0.0
Cc1cc(C)cc(O[P](=O)(Oc2cc(C)cc(C)c2)Oc3cc(C)cc(C)c3)c1,water,298,-7.312230264,mol/L,410.45000000000016,7.182020000000006,44.760000000000005,0.0,4.0
CC1=C(\C=C\C(C)=C\C=C\C(C)=C\C=C\C=C(C)\C=C\C=C(C)\C=C\C2=C(C)CCCC2(C)C)C(C)(C)CCC1,water,298,-7.553792438,mol/L,536.8880000000004,12.605799999999977,0.0,0.0,0.0
[Hf],water,298,-7.172432644,mol/L,178.49,-0.0025,0.0,0.0,0.0
[O--].[O--].[Hf+4],water,298,-7.244046096,mol/L,210.488,-0.2401,57.0,0.0,0.0
CCCCCCCCCCCCCCCCCCNC(=O)CCCCCCCCCCC\C=C/CCCCCCCC,water,298,-7.770909423,mol/L,590.0780000000001,13.961999999999973,29.1,1.0,1.0
NC(Cc1ccccc1)=CC(=O)[C@@H](Cc2ccccc2)N(Cc3ccccc3)Cc4ccccc4,water,298,-7.663343734,mol/L,460.62100000000015,5.954500000000007,46.330000000000005,1.0,3.0
CCCCCCCCCCCCCCCC(=O)NCCCCCCCC\C=C/CCCCCCCC,water,298,-7.704078415,mol/L,505.9160000000006,11.621399999999985,29.1,1.0,1.0
Clc1ccc(NC(=O)Nc2ccc(Cl)c(Cl)c2)cc1,water,298,-7.499119105,mol/L,315.587,5.290800000000002,41.13,2.0,1.0
[H+].[Cl-].NC(N)=N.OC(=O)C1=NN(c2ccc(cc2)[S](O)(=O)=O)C(=O)C1N=Nc3ccc(cc3)[S](O)(=O)=O,water,298,-7.751246762,mol/L,563.9580000000003,-2.925229999999993,279.32,6.0,10.0
CCCCCCCCCCCCCCCCCCNC(=O)CCc1cc(c(O)c(c1)C(C)(C)C)C(C)(C)C,water,298,-7.724189002,mol/L,529.8940000000002,10.297499999999994,49.33,2.0,2.0
CC(C)(C)c1cc(CCC(=O)NCCCCCCNC(=O)CCc2cc(c(O)c(c2)C(C)(C)C)C(C)(C)C)cc(c1O)C(C)(C)C,water,298,-7.804113524,mol/L,636.9620000000002,8.646000000000008,98.66000000000001,4.0,4.0
CCCCC(CC)C(=O)OCC(C)(C)COC(=O)C(CC)CCCC,water,298,-7.552116787,mol/L,356.5470000000002,5.531800000000006,52.6,0.0,4.0
Nc1ccc(Cl)cc1C(=O)c2ccccc2Cl,water,298,-7.425088938,mol/L,266.127,3.8066000000000013,43.09,1.0,2.0
O=[P](Oc1ccccc1)(Oc2ccccc2)Oc3ccc(cc3)c4ccc(O[P](=O)(Oc5ccccc5)Oc6ccccc6)cc4,water,298,-7.813287357,mol/L,650.5600000000003,10.643399999999989,89.52000000000001,0.0,8.0
O=C1N(c2ccc(cc2)N=Nc3ccccc3)C(=O)c4ccc5c6ccc7C(=O)N(c8ccc(cc8)N=Nc9ccccc9)C(=O)c%10ccc(c%11ccc1c4c5%11)c6c7%10,water,298,-7.875509224,mol/L,750.774,12.169199999999988,124.19999999999999,0.0,8.0
CCOc1cc2N=C3C(=C4Oc5cc(NC(=O)c6ccccc6)c(OCC)cc5N=C4C(=C3Oc2cc1NC(=O)c7ccccc7)NC(C)=O)NC(C)=O,water,298,-7.86138265,mol/L,726.7460000000002,7.019400000000005,178.04,4.0,10.0
CCCCCCCCCCCCCCCCCCNC(=O)CCCCCCCCCCCCCCCCC,water,298,-7.729153446,mol/L,535.9860000000004,12.62559999999998,29.1,1.0,1.0
CC(C)=C.Cc1ccc(O)cc1.C2C=CC3C4CC(C=C4)C23,water,298,-7.471957315,mol/L,296.454,5.667620000000005,20.23,1.0,1.0
[Al+3].[O-]B([O-])[O-],water,298,-6.93344173,mol/L,85.791,-4.3286,69.17999999999999,0.0,3.0
CCCCCCOC(=O)c1ccccc1C(=O)c2ccc(cc2O)N(CC)CC,water,298,-7.599353521,mol/L,397.5150000000002,5.2065000000000055,66.84,1.0,5.0
B#N,water,298,-6.394784279,mol/L,24.819,-0.36572000000000005,23.79,0.0,1.0
[Zn++].CCCCCCC(O)CCCCCCCCCCC([O-])=O.CCCCCCC(O)CCCCCCCCCCC([O-])=O,water,298,-7.822390402,mol/L,664.34,7.93470000000001,120.72,2.0,6.0
Cc1c(Cc2cc(c(O)c(c2)C(C)(C)C)C(C)(C)C)c(C)c(Cc3cc(c(O)c(c3)C(C)(C)C)C(C)(C)C)c(C)c1Cc4cc(c(O)c(c4)C(C)(C)C)C(C)(C)C,water,298,-7.981473646,mol/L,775.2149999999998,14.286059999999969,60.69,3.0,3.0
CC(C)(c1ccccc1)c2ccc(Nc3ccc(cc3)C(C)(C)c4ccccc4)cc2,water,298,-7.782007082,mol/L,405.5850000000001,8.082000000000008,12.03,1.0,1.0
CCN(CC)c1ccc2C=C(C(=O)Oc2c1)c3oc4ccc(cc4n3)[S](N)(=O)=O,water,298,-7.831098413,mol/L,413.4550000000001,3.0948,119.63999999999999,1.0,7.0
O=C1c2ccccc2C(=O)c3c4Nc5ccc6C(=O)c7ccccc7C(=O)c6c5Nc4ccc13,water,298,-7.946874563,mol/L,442.4300000000002,4.140600000000002,99.85999999999999,2.0,4.0
CC(C)(c1ccccc1)c2cc(n3nc4ccccc4n3)c(O)c(c2)C(C)(C)c5ccccc5,water,298,-7.951902608,mol/L,447.58200000000016,6.777900000000007,50.94,1.0,4.0
CCCCC(CC)COCCCNC(=O)Nc1cccc2c(NC(=O)NCCCOCC(CC)CCCC)cccc12,water,298,-8.06807152,mol/L,584.8460000000003,8.329000000000008,100.72000000000001,4.0,4.0
S,water,298,-6.83356781,mol/L,34.083,0.11280000000000001,0.0,0.0,0.0
Cc1cc(CCC(=O)OCC(C)(C)[CH]2OC[C]3(CO2)CO[CH](OC3)C(C)(C)COC(=O)CCc4cc(C)c(O)c(c4)C(C)(C)C)cc(c1O)C(C)(C)C,water,298,-8.267743564,mol/L,740.9750000000001,7.746040000000011,129.98000000000002,2.0,10.0
[Ti+4].Fc1ccc(N2C=C[C-]=C2)c(F)c1.Fc3ccc(N4C=C[C-]=C4)c(F)c3.[cH-]5cccc5.[cH-]6cccc6,water,298,-8.125789392,mol/L,534.3790000000001,7.919880000000006,9.86,0.0,2.0
CCN(CC)c1ccc2c(OC(=O)C(=C2C#N)c3sc4ccccc4n3)c1,water,298,-8.097434324,mol/L,375.45300000000003,4.787580000000004,70.13,0.0,6.0
N#Cc1ccc(C=Cc2ccc(cc2)C=Cc3cccc(c3)C#N)cc1,water,298,-8.123728846,mol/L,332.40600000000006,5.7707600000000046,47.58,0.0,2.0
COc1cc(ccc1N=NC(C(C)=O)C(=O)Nc2ccccc2)c3ccc(N=NC(C(C)=O)C(=O)Nc4ccccc4)c(OC)c3,water,298,-8.616766696,mol/L,620.6660000000002,6.7308000000000066,160.23999999999998,2.0,10.0
[Cu]1N2C3=NC4=NC(=Nc5n1c(N=C6N=C(N=C2c7ccccc37)c8ccccc68)c9ccccc59)c%10ccccc4%10,water,298,-8.857394319,mol/L,576.0820000000002,4.848300000000004,84.02,0.0,8.0
CCN(CCOc1ccc(cc1)C2CCCCC2)c3ccc(C=C(C#N)C#N)c(C)c3,water,298,-8.771445737,mol/L,413.5650000000001,6.378580000000007,60.05,0.0,4.0
CCCCC(CC)CO[P](=O)(OCC(CC)CCCC)OCC(CC)CCCC,water,298,-8.85998044,mol/L,434.6420000000004,8.793500000000003,44.760000000000005,0.0,4.0
CCCCCCOc1ccc(c(O)c1)c2nc(nc(n2)c3ccccc3)c4ccccc4,water,298,-9.15181097,mol/L,425.5320000000001,6.537300000000006,68.13,1.0,5.0
CCCCCCCCCCCCCCCCCCCC\C=C\C\C=C\CCCCCCCCCCCNCCCCCCCCCCCCCCCCCCCC\C=C\C\C=C\CCCCCCCCCCC,water,298,-9.707106255,mol/L,1018.9109999999984,26.24660000000005,12.03,1.0,1.0
CCCCCC(CCC)COC(=O)c1ccccc1C(=O)OCC(CCC)CCCCC,water,298,-9.649988729,mol/L,446.6720000000004,7.993400000000009,52.60000000000001,0.0,4.0
CC1COc2ccccc2N1C(=O)C(Cl)Cl,water,298,-3.835390149,mol/L,260.12,2.6042000000000005,29.54,0.0,2.0
[H+].[Cl-].Fc1ccc(cc1)C(=O)C2CCNCC2,water,298,0.589019569,mol/L,243.70899999999995,-0.8754999999999997,29.1,1.0,2.0
OCC(=O)CO,water,298,1.013864214,mol/L,90.078,-1.4599000000000002,57.53,2.0,3.0
[Na+].[Na+].[O-][S](=O)(=O)c1ccc2c(C=CC(=O)/C2=N/Nc3ccc(N=Nc4ccc(Nc5ccccc5)c(c4)[S]([O-])(=O)=O)c6ccccc36)c1,water,298,-0.875909937,mol/L,697.6620000000001,0.22710000000000652,192.60999999999999,2.0,12.0
[Na+].[Na+].Oc1cc(cc2cc(cc(N=Nc3cc(N=Nc4cc(cc(c4O)[N+]([O-])=O)[N+]([O-])=O)c(O)c(N=Nc5ccc(cc5)[N+]([O-])=O)c3O)c12)[S]([O-])(=O)=O)[S]([O-])(=O)=O,water,298,-0.967567025,mol/L,843.5890000000004,0.449200000000002,398.9,4.0,22.0
NC(N)=S,water,298,0.072720909,mol/L,76.124,-0.8113000000000001,52.04,2.0,1.0
[Na+].[Na+].Oc1c2ccc(NC(=O)Nc3ccc4c(O)c(N=Nc5ccccc5)c(cc4c3)[S]([O-])(=O)=O)cc2cc(c1N=Nc6ccccc6)[S]([O-])(=O)=O,water,298,-1.887246692,mol/L,756.6860000000001,1.695200000000002,245.43,4.0,13.0
[Cl-].C[N+](C)(C)CC1CO1,water,298,0.749634411,mol/L,151.63699999999997,-2.904599999999996,12.53,0.0,1.0
[Li+].[Cl-],water,298,1.29438208,mol/L,42.394000000000005,-5.992,0.0,0.0,0.0
CC(C)c1ccc(cc1)[S](O)(=O)=O,water,298,0.612751114,mol/L,200.25899999999996,2.0567,54.37,1.0,2.0
Cc1cccc(c1C)[S](O)(=O)=O,water,298,0.64428885,mol/L,186.232,1.5501399999999999,54.37,1.0,2.0
[Na+].[Na+].COc1cc(c(C)cc1NC(=O)C(N=Nc2ccc(cc2)c3sc4c(ccc(C)c4[S]([O-])(=O)=O)n3)C(C)=O)[S]([O-])(=O)=O,water,298,-0.916346136,mol/L,676.6620000000003,-1.9150599999999918,207.40999999999997,1.0,13.0
[Cr].CC([O-])=O,water,298,0.863005566,mol/L,111.03999999999999,-1.2463000000000002,40.129999999999995,0.0,2.0
[Na+].[Na+].[O-][S](=O)(=O)c1cc(N\N=C2/C(=O)C=Cc3ccccc23)ccc1c4ccc(N\N=C5/C(=O)C=Cc6ccccc56)cc4[S]([O-])(=O)=O,water,298,-1.897313906,mol/L,698.6460000000003,-2.0059999999999896,197.32,2.0,12.0
Nc1ccc(cc1)C#N,water,298,-1.142974365,mol/L,118.139,1.1404800000000002,49.81,1.0,2.0
Nc1ccc(cc1)C#N,water,298,-1.163908272,mol/L,118.139,1.1404800000000002,49.81,1.0,2.0
[K+].[O-]C(=O)CS,water,298,0.780671021,mol/L,130.209,-4.3298999999999985,40.129999999999995,1.0,3.0
[Na+].OC(COCC=C)C[S]([O-])(=O)=O,water,298,0.55383995,mol/L,218.206,-3.9008999999999974,86.66,1.0,5.0
O=C1OCCO1,water,298,0.946191052,mol/L,88.062,0.1532,35.53,0.0,3.0
OC(=O)CC(=C)C(O)=O,water,298,-0.225028298,mol/L,130.099,0.10190000000000005,74.6,2.0,2.0
[Na+].OCCN1CCN(CC1)CC[S]([O-])(=O)=O,water,298,0.464610932,mol/L,260.291,-4.854499999999995,83.91,1.0,6.0
[Cl-].N[C@@H](CCCN=C(N)N)C(O)=O.[H+],water,298,0.539730472,mol/L,210.665,-4.431599999999998,127.72,4.0,3.0
[Cl-].[Cl-].[Cl-].[Cr+3],water,298,0.645466259,mol/L,158.35500000000002,-8.990499999999999,0.0,0.0,0.0
[Na+].CC(Nc1ccc(N\N=C\2C=C(c3ccccc3C2=O)[S]([O-])(=O)=O)c(C)c1)C(=O)c4ccccc4,water,298,-1.812900622,mol/L,511.5350000000003,1.2328200000000005,127.75999999999999,2.0,8.0
OC(=O)c1cc(Br)nn1c2ncccc2Cl,water,298,-1.597085479,mol/L,302.515,2.3814,68.00999999999999,1.0,4.0
Nc1cnn(CCO)c1N.O[S](O)(=O)=O,water,298,0.442827102,mol/L,240.24099999999999,-1.612999999999999,164.68999999999997,5.0,7.0
ClCC1CO1,water,298,-0.147373679,mol/L,92.525,0.624,12.53,0.0,1.0
[Na].[Na+].[Fe].Nc1cc(ccc1O)[N+]([O-])=O.Nc2cc(cc(c2O)[S]([O-])(=O)=O)[N+]([O-])=O.Oc3cccc(O)c3,water,298,-0.958981243,mol/L,599.2430000000003,-1.6121999999999985,276.44,6.0,13.0
[Na+].[Na+].[Na+].[O-]C(=O)CN(CC([O-])=O)CC([O-])=O,water,298,0.396103236,mol/L,257.0849999999999,-14.449900000000003,123.63,0.0,7.0
[Na+].Nc1cc(N)c(cc1N=Nc2cc(ccc2O)[N+]([O-])=O)[S]([O-])(=O)=O,water,298,-0.763942094,mol/L,375.2980000000001,-1.2116999999999993,197.33,3.0,10.0
NC(N)=N.SC#N,water,298,0.730968256,mol/L,118.16499999999999,-0.76415,99.68,4.0,3.0
N=C(c1ccccc1)c2ccccc2,water,298,-2.781128006,mol/L,181.238,3.1027700000000014,23.85,1.0,1.0
[Cl-].CCCCCCCCCCCCCC[N+](C)(C)Cc1ccccc1,water,298,-0.773513953,mol/L,368.04900000000004,3.9681000000000015,0.0,0.0,0.0
[Na+].[O-]C(=O)CS,water,298,0.727399149,mol/L,114.10099999999998,-4.3298999999999985,40.129999999999995,1.0,3.0
[K+].CC(CC([O-])=O)CC(C)(C)C,water,298,0.485162372,mol/L,196.33099999999996,-1.7972999999999977,40.129999999999995,0.0,2.0
[Na].[Na+].[Fe].Nc1cc(ccc1O)[N+]([O-])=O.Nc2cc(cc(c2O)[S]([O-])(=O)=O)[N+]([O-])=O.Oc3cccc(O)c3,water,298,-0.994056687,mol/L,599.2430000000003,-1.6121999999999985,276.44,6.0,13.0
COC(=O)C=C,water,298,-0.156801457,mol/L,86.09,0.34539999999999993,26.3,0.0,2.0
CC1=CC(=O)N2NC=NC2=N1,water,298,-1.33639321,mol/L,150.14100000000002,-0.27398000000000006,63.05,1.0,4.0
[Na+].[Na+].COc1cc(N=Nc2ccc(cc2)[S]([O-])(=O)=O)c(C)cc1N\N=C/3C(=O)c4ccc(Nc5ccccc5)cc4C=C3[S]([O-])(=O)=O,water,298,-2.045401474,mol/L,691.6550000000003,-0.3747799999999937,201.84,2.0,13.0
O=C1OC(=O)c2ccccc12,water,298,-1.378213218,mol/L,148.11699999999996,0.9972,43.370000000000005,0.0,3.0
[Na+].[Na+].Cc1ccccc1Oc2ccccc2N\N=C/3C(=O)c4c(NC(=O)c5ccccc5)cc(cc4C=C3[S]([O-])(=O)=O)[S]([O-])(=O)=O,water,298,-2.050671467,mol/L,677.6240000000004,-1.4977799999999937,194.18999999999997,2.0,11.0
[O-][S](=O)(=O)CCC[NH+]1CCOCC1,water,298,0.455782507,mol/L,209.26699999999994,-2.1631999999999962,70.86999999999999,1.0,4.0
[Na].[Na+].[Fe].Nc1cc(ccc1O)[N+]([O-])=O.Nc2cc(cc(c2O)[S]([O-])(=O)=O)[N+]([O-])=O.Oc3cccc(O)c3,water,298,-1.007192838,mol/L,599.2430000000003,-1.6121999999999985,276.44,6.0,13.0
[Na+].[Na+].[Na+].[Na+].[Na+].[Na+].[Na+].[Na+].NC(=O)Nc1cc(Nc2nc(Cl)nc(Nc3ccc(c4ccc(Nc5nc(Cl)nc(Nc6ccc(N=Nc7cc8c(cc(cc8[S]([O-])(=O)=O)[S]([O-])(=O)=O)cc7[S]([O-])(=O)=O)c(NC(N)=O)c6)n5)cc4[S]([O-])(=O)=O)c(c3)[S]([O-])(=O)=O)n2)ccc1N=Nc9cc%10c(cc(cc%10[S]([O-])(=O)=O)[S]([O-])(=O)=O)cc9[S]([O-])(=O)=O,water,298,-1.498168281,mol/L,1834.2740000000003,-18.611999999999938,742.7400000000001,8.0,40.0
[Li+].[Cl-],water,298,1.134397972,mol/L,42.394000000000005,-5.992,0.0,0.0,0.0
OCC[C@@H]1CCCC[NH2+]1,water,298,0.642748355,mol/L,130.211,-0.5152999999999992,36.84,2.0,1.0
[H+].[Cl-].NC(CO)(CO)CO,water,298,0.551414915,mol/L,157.59699999999998,-5.222699999999997,86.71000000000001,4.0,4.0
CC(C)COC(=O)[C@@H](C)O,water,298,-0.412857335,mol/L,146.18599999999998,0.5664,46.53,1.0,3.0
[Ca++].[O-]C(=O)CS,water,298,-0.383898135,mol/L,131.18900000000002,-1.7147000000000001,40.129999999999995,1.0,3.0
CC1(C)CC(O)CC(C)(CN)C1,water,298,0.488999371,mol/L,171.28399999999996,1.5224,46.25,2.0,2.0
[Na+].CC(=C)C[S]([O-])(=O)=O,water,298,0.519421508,mol/L,158.154,-2.8882999999999983,57.199999999999996,0.0,3.0
[K+].[K+].[O-][S](=O)(=O)OO[S]([O-])(=O)=O,water,298,-0.653730142,mol/L,270.322,-8.136999999999999,132.85999999999999,0.0,8.0
O[C@@H](CNc1ccccc1)C[S]([O-])(=O)=O,water,298,0.11878449,mol/L,230.26499999999996,0.0045999999999999375,89.45999999999998,2.0,5.0
CN(CCC#N)c1ccc(cc1)C=CC2=[N+](C)c3ccccc3C2(C)C.O[P](O)([O-])=O,water,298,-0.93040182,mol/L,441.46800000000013,3.195280000000003,110.63,2.0,4.0
[Na+].CCCCCCCC1N(CCO)C=CN1CCC([O-])=O,water,298,0.212706758,mol/L,306.3820000000001,-2.1018999999999943,66.84,1.0,5.0
[Na+].[Na+].[Na+].[Na+].[O-]C(=O)CN(CCN(CC([O-])=O)CC([O-])=O)CC([O-])=O,water,298,0.118989877,mol/L,380.1720000000002,-19.393999999999984,167.0,0.0,10.0
[Na+].[Na+].[Na+].OCCN(CCN(CC([O-])=O)CC([O-])=O)CC([O-])=O,water,298,0.162150306,mol/L,344.20700000000005,-15.155599999999998,147.1,1.0,9.0
[Cl-].CCCCCCCCCCCCCC[N+](C)(C)Cc1ccccc1,water,298,-0.866935638,mol/L,368.04900000000004,3.9681000000000015,0.0,0.0,0.0
[F].[F].[F].[Cr],water,298,-0.338416648,mol/L,108.99000000000001,1.2581000000000002,0.0,0.0,0.0
CC(=C)C(=O)OCC1CO1,water,298,-0.45378908,mol/L,142.154,0.5045000000000001,38.83,0.0,3.0
[O-][N+](=O)c1[nH]ncc1,water,298,-1.285472821,mol/L,113.076,0.31789999999999985,71.82,1.0,3.0
NO,water,298,-0.778545884,mol/L,33.03,-0.6657000000000002,46.25,2.0,2.0
OCC(O)COc1ccc(Cl)cc1,water,298,1.431347968,mol/L,202.63700000000003,1.072,49.69,2.0,3.0
[Na+].[Co+3].CC(=O)/C(=N/Nc1cc(ccc1[O-])[S](N)(=O)=O)C(=O)[N-]c2ccccc2.CC(=O)/C(=N/Nc3cc(ccc3[O-])[S](N)(=O)=O)C(=O)[N-]c4ccccc4,water,298,-2.208470112,mol/L,830.6790000000001,-1.005499999999991,311.7,4.0,14.0
CCCCCCOC(CO)CO,water,298,-1.055812212,mol/L,176.25599999999997,0.9364999999999999,49.69,2.0,3.0
[Br-].CC[N+]1(C)CCCC1,water,298,1.410187143,mol/L,194.11599999999996,-1.7492999999999979,0.0,0.0,0.0
[K+].[O-]C(=O)c1ccccc1,water,298,0.48726735,mol/L,160.213,-2.945899999999998,40.129999999999995,0.0,2.0
[Cl-].NC(=O)c1ccc[n+](Cc2ccccc2)c1,water,298,0.293610373,mol/L,248.713,-1.8746999999999958,46.970000000000006,1.0,1.0
CC(C)=CCC[C@@](C)(C=C)\C=C\c1ccc(O)cc1,water,298,-6.337017381,mol/L,256.389,5.344100000000005,20.23,1.0,1.0
O.[Na+].[O-]OB=O,water,298,-0.823100201,mol/L,99.814,-5.577699999999998,80.86000000000001,0.0,3.0
COC(C)(C)CCOC(C)=O,water,298,-0.439029198,mol/L,160.213,1.3646,35.53,0.0,3.0
[Cr+3].[O-][P]([O-])([O-])=O,water,298,0.48599564,mol/L,146.966,-2.8271,86.25,0.0,4.0
[Na+].[Na+].[Fe].Nc1ccc(cc1)[N+]([O-])=O.Nc2cc(cc(c2O)[N+]([O-])=O)[N+]([O-])=O.OC/3=CC(=O)C=CC3=N/Nc4cc(cc5cc(cc(O)c45)[S]([O-])(=O)=O)[S]([O-])(=O)=O,water,298,-1.296729537,mol/L,877.4680000000003,-3.324399999999993,398.00999999999993,6.0,20.0