Solute,Solvent,Temperature_K,Solubility,Units,MW,LogP,TPSA,HBD,HBA
Clc1c(Cl)c(Cl)c2C(=O)OC(=O)c2c1Cl,water,298,-4.553119611,mol/L,285.89699999999993,3.6107999999999993,43.370000000000005,0.0,3.0
ClCCO[P](=O)(OCCCl)OCCCl,water,298,-1.555607859,mol/L,285.491,2.8607000000000014,44.760000000000005,0.0,4.0
OC(O)C(Cl)(Cl)Cl,water,298,0.680729805,mol/L,165.403,0.6672999999999998,40.46,2.0,2.0
[Ca++].CC1=NN(c2cccc(c2)[S]([O-])(=O)=O)C(=O)C1N=Nc3cc(Cl)c(Cl)cc3[S]([O-])(=O)=O,water,298,-3.839084061,mol/L,545.3950000000002,2.2958,171.79,0.0,10.0
CCO,water,298,1.233668218,mol/L,46.069,-0.0014000000000000123,20.23,1.0,1.0
CCCCCCCCC(O)=O,water,298,-2.302242016,mol/L,158.241,2.821600000000001,37.3,1.0,1.0
CCCCCCCC(O)=O,water,298,-2.26193042,mol/L,144.214,2.4315000000000007,37.3,1.0,1.0
COc1ccc(OC)cc1,water,298,-2.245531528,mol/L,138.166,1.7038,18.46,0.0,2.0
C1CCC(CC1)OCCc2ccccc2,water,298,-2.418090055,mol/L,204.31300000000005,3.578400000000003,9.23,0.0,1.0
OCCCc1ccccc1,water,298,-1.242119055,mol/L,136.194,1.6115,20.23,1.0,1.0
[Co++].CCC(C)(CCC(C)C)C([O-])=O.CCC(C)(CCC(C)C)C([O-])=O,water,298,-2.716017407,mol/L,401.45300000000026,3.1751000000000023,80.25999999999999,0.0,4.0
C/C=C/C(=O)C1C(C)C=CCC1(C)C,water,298,-3.396366501,mol/L,192.30199999999996,3.370000000000002,17.07,0.0,1.0
O=C(OCC1CO1)c2ccc(cc2)C(=O)OCC3CO3,water,298,-3.557960056,mol/L,278.26000000000005,0.7977999999999998,77.66,0.0,6.0
CCCCC/C=C/CCC=O,water,298,-3.301742894,mol/L,154.253,3.102000000000001,17.07,0.0,1.0
CC(C)=CCC\C(C)=C/CO,water,298,-2.302307279,mol/L,154.253,2.6714000000000016,20.23,1.0,1.0
[Na+].[Na+].CN(CCO)c1nc(Nc2ccccc2)nc(Nc3ccc(/C=C/c4ccc(Nc5nc(Nc6ccccc6)nc(n5)N(C)CCO)cc4[S]([O-])(=O)=O)c(c3)[S]([O-])(=O)=O)n1,water,298,-3.069321152,mol/L,900.912,-2.1253999999999884,286.8,6.0,20.0
Cc1cc(C)c(C)c(O)c1,water,298,-2.252203004,mol/L,136.194,2.3174600000000005,20.23,1.0,1.0
CC(F)(F)F,water,298,-2.043101387,mol/L,84.04,1.5686000000000002,0.0,0.0,0.0
CC(C)(O)C(=O)c1ccc(OCCO)cc1,water,298,-1.469930479,mol/L,224.25599999999997,1.0112999999999999,66.76,2.0,4.0
CN=C=S,water,298,-0.98322259,mol/L,73.12,0.7190000000000001,12.36,0.0,2.0
CN(C(=O)N(C)c1ccccc1)c2ccccc2,water,298,-3.497557581,mol/L,240.306,3.3792000000000018,23.550000000000004,0.0,1.0
O=C1CCCCCCCCCCC(=O)OCCO1,water,298,-3.533758505,mol/L,256.3419999999999,2.987400000000002,52.60000000000001,0.0,4.0
CC(C)CCCCCCCO,water,298,-3.324378497,mol/L,158.285,2.975300000000002,20.23,1.0,1.0
NO,water,298,-2.64384731,mol/L,33.03,-0.6657000000000002,46.25,2.0,2.0
[Co++].CCC([O-])=O.CCC([O-])=O,water,298,-0.437662317,mol/L,205.07499999999996,-1.709899999999999,80.25999999999999,0.0,4.0
CCOC(=O)C1OC1c2ccccc2,water,298,-2.409651238,mol/L,192.214,1.6895999999999998,38.83,0.0,3.0
CC(C)CCCC(C)(C)O,water,298,-2.286983634,mol/L,144.258,2.583600000000001,20.23,1.0,1.0
CCC(=O)OCc1ccccc1,water,298,-2.344979827,mol/L,164.204,2.1398,26.3,0.0,2.0
[Zn++].CC(C)(C)CC(C)(C)CC([O-])=O.CC(C)(C)CC(C)(C)CC([O-])=O,water,298,-2.740980645,mol/L,407.91000000000025,3.1751000000000023,80.25999999999999,0.0,4.0
CC(=O)OC1(CCCCC1)C#C,water,298,-2.352215179,mol/L,166.22,1.8856,26.3,0.0,2.0
CCN(CC)CC,water,298,-0.137682984,mol/L,101.193,1.3481,3.24,0.0,1.0
CCCCCCCC\C=C/CCCCCCCCNCCCNCCCN,water,298,-3.718391335,mol/L,381.69300000000015,5.942000000000005,50.08,3.0,3.0
CSC,water,298,-0.931218902,mol/L,62.137,0.9792,0.0,0.0,1.0
[Na+].CNC([S-])=S,water,298,0.747325108,mol/L,129.185,-2.9583999999999993,12.03,1.0,2.0
CCOC(=O)c1ccccc1,water,298,-2.319270928,mol/L,150.177,1.8633,26.3,0.0,2.0
Nc1cc(Cl)c(Cl)cc1Cl,water,298,-3.435950486,mol/L,196.464,3.229,26.02,1.0,1.0
Clc1cccc(n1)C(Cl)(Cl)Cl,water,298,-3.506108364,mol/L,230.909,3.5617,12.89,0.0,1.0
OC(=O)c1cc2ccccc2cc1O,water,298,-3.417245584,mol/L,188.182,2.2436000000000003,57.53,2.0,2.0
C\C=C/C=C.C/C=C/C=C.C1CC=CC1,water,298,-2.454265074,mol/L,204.35699999999994,5.223500000000005,0.0,0.0,0.0
CC(C)c1cccc(c1)C(C)CC=O,water,298,-3.677346846,mol/L,190.28599999999994,3.502500000000002,17.07,0.0,1.0
CCCC(C)C.CCCC(C)CC.CCC(C)CC.CCC(C)C(C)C,water,298,-2.715311849,mol/L,372.76600000000013,10.406099999999995,0.0,0.0,0.0
CCCCC,water,298,-2.002117911,mol/L,72.151,2.1965000000000003,0.0,0.0,0.0
CC\C=C\C,water,298,-1.989810357,mol/L,70.135,1.9725,0.0,0.0,0.0
[Na+].[Na+].[Na+].[Na+].[Na+].[Na+].Nc1c(N=Nc2cc(Nc3nc(Cl)nc(Nc4cccc(c4)[S](=O)(=O)CCO[S]([O-])(=O)=O)n3)ccc2[S]([O-])(=O)=O)c(cc5cc(c(N=Nc6ccc7c(cccc7[S]([O-])(=O)=O)c6[S]([O-])(=O)=O)c(O)c15)[S]([O-])(=O)=O)[S]([O-])(=O)=O,water,298,-1.277021164,mol/L,1357.501,-14.767800000000001,544.99,4.0,32.0
FC1CC(F)(F)C(F)(F)C1(F)F,water,298,-2.436880918,mol/L,196.065,2.6341,0.0,0.0,0.0
CCCC[Sn](CCCC)(CCCC)O[Sn](CCCC)(CCCC)CCCC,water,298,-3.922851514,mol/L,596.117,9.694599999999998,9.23,0.0,1.0
CCCC(C)C.CCCC(C)CC.CCC(C)CC.CCC(C)C(C)C,water,298,-3.720177945,mol/L,372.76600000000013,10.406099999999995,0.0,0.0,0.0
CCCCC,water,298,-3.006984006,mol/L,72.151,2.1965000000000003,0.0,0.0,0.0
CC\C=C\C,water,298,-2.994676453,mol/L,70.135,1.9725,0.0,0.0,0.0
COc1cc(\C=C\C)ccc1O,water,298,-2.364737497,mol/L,164.20399999999998,2.433900000000001,29.46,1.0,2.0
Cc1ccc(C=O)cc1C,water,298,-2.277035079,mol/L,134.178,2.11594,17.07,0.0,1.0
COc1ccc(OC)cc1,water,298,-2.290367927,mol/L,138.166,1.7038,18.46,0.0,2.0
O.CC([NH3+])c1ccccc1.C[C@@H]2O[C@@H]2[P](O)([O-])=O,water,298,-0.594139338,mol/L,277.257,-0.5583,132.03,2.0,3.0
OC(=O)c1ccccc1C(O)=O,water,298,-1.374487532,mol/L,166.13199999999998,1.083,74.6,2.0,2.0
[Na+].[Na+].[O-]C(=O)c1ccccc1C2=C3C=C(I)C(=O)C(=C3Oc4c(I)c([O-])c(I)cc24)I,water,298,-1.099315041,mol/L,879.8590000000002,-1.571699999999999,93.4,0.0,5.0
OC(=O)c1ccccc1C(O)=O,water,298,-1.375355253,mol/L,166.13199999999998,1.083,74.6,2.0,2.0
CCCCOC(C)=O,water,298,-1.219958563,mol/L,116.15999999999998,1.3496000000000001,26.3,0.0,2.0
Nc1ccc(c2ccc(N)cc2[S](O)(=O)=O)c(c1)[S](O)(=O)=O,water,298,-2.691927271,mol/L,344.37,1.0114,160.78,4.0,6.0
COc1cc(C=O)cc(c1O)[N+]([O-])=O,water,298,-2.44968993,mol/L,197.146,1.1214999999999997,89.66999999999999,1.0,5.0
CCN(CC)c1cccc(NC(C)=O)c1,water,298,-2.469378031,mol/L,206.289,2.4912,32.34,1.0,2.0
[As],water,298,-2.029511322,mol/L,74.922,-0.3808,0.0,0.0,0.0
[Co++].CCCCCCCCCCCCCCCCCC([O-])=O.CCCCCCCCCCCCCCCCCC([O-])=O,water,298,-3.948305426,mol/L,625.8850000000003,9.993099999999997,80.25999999999999,0.0,4.0
O=[Pb],water,298,-3.502355132,mol/L,223.19899999999998,-0.49960000000000004,17.07,0.0,1.0
Cc1ccccc1NC(N)=Nc2ccccc2C,water,298,-3.533884584,mol/L,239.322,3.361740000000001,50.41,2.0,1.0
CCOc1ccc2NC(C)(C)C=C(C)c2c1,water,298,-3.491985669,mol/L,217.31199999999998,3.692700000000002,21.259999999999998,1.0,2.0
CCCCCCCCCCCCCCCCN(C)C,water,298,-3.585488124,mol/L,269.51699999999994,6.029300000000006,3.24,0.0,1.0
CCCCCCCCCCO,water,298,-4.297981439,mol/L,158.285,3.119400000000002,20.23,1.0,1.0
CCCC(CC)COC(=O)CCc1cc(c(O)c(c1)C(C)(C)C)C(C)(C)C,water,298,-7.09873715,mol/L,376.58100000000013,6.289300000000007,46.53,1.0,3.0
CC1(C)CCCC2(C)C3CCC(C13)C2=C,water,298,-4.412762427,mol/L,204.35699999999997,4.4150000000000045,0.0,0.0,0.0
Oc1ccccc1C(=O)OCCc2ccccc2,water,298,-4.489105335,mol/L,242.27399999999997,2.7917000000000014,46.53,1.0,3.0
CCCCC(CC)COC(=O)C(C)=C,water,298,-4.405241252,mol/L,198.30599999999995,3.3221000000000016,26.3,0.0,2.0
CCCCCCCCCCCC(=O)OC,water,298,-4.44131571,mol/L,214.34899999999996,4.080300000000003,26.3,0.0,2.0
CC(COC(=O)c1ccccc1)OC(=O)c2ccccc2,water,298,-4.567302938,mol/L,284.311,3.0889000000000015,52.6,0.0,4.0
[Ca++].[Ca++].[Ca++].[O-][P]([O-])([O-])=O.[O-][P]([O-])([O-])=O,water,298,-4.605114666,mol/L,310.17400000000004,-6.791600000000001,172.5,0.0,8.0
CCC(C)(C)C1CCCCC1OC(C)=O,water,298,-4.446203904,mol/L,212.33299999999997,3.544500000000003,26.3,0.0,2.0
CO[Si](CCCOC(=O)C(C)=C)(OC)OC,water,298,-4.517694567,mol/L,248.35099999999997,1.3739,53.99000000000001,0.0,5.0
N#C[C](=[C]1CC[CH2]CC1)c2ccccc2,water,298,-4.420023997,mol/L,197.28100000000003,3.9278800000000027,23.79,0.0,1.0
CC\C=C/CCOC(=O)C\C=C/CC,water,298,-4.431961554,mol/L,196.29,3.242200000000002,26.3,0.0,2.0
OC(=O)Cc1ccccc1Nc2c(Cl)cccc2Cl,water,298,-4.620257788,mol/L,296.153,4.364100000000001,49.33,2.0,2.0
[O-][N+](=O)c1ccc(CCc2ccc(cc2)[N+]([O-])=O)cc1,water,298,-4.5898858,mol/L,272.26,3.2882000000000016,86.28,0.0,4.0
CC(C)(C)CC(C)(C)c1ccc(O)cc1,water,298,-4.469462233,mol/L,206.329,4.106000000000003,20.23,1.0,1.0
CCCCCCCCCc1ccc(O)cc1,water,298,-4.49802684,mol/L,220.35600000000002,4.685300000000005,20.23,1.0,1.0
COc1ccc(cc1[N+]([O-])=O)C(=O)Nc2ccc(cc2)C(N)=O,water,298,-4.653605269,mol/L,315.2850000000001,1.9545999999999997,124.56,2.0,5.0
[Cl-].CCCCCCCCCCCCCCCCCC[NH+](C)C,water,298,-4.678690034,mol/L,334.03200000000004,2.3964000000000008,4.44,1.0,0.0
ClCC(CCl)O[P](=O)(OC(CCl)CCl)OC(CCl)CCl,water,298,-4.789285509,mol/L,430.90700000000004,4.682900000000003,44.760000000000005,0.0,4.0
CC(C)(c1ccc(OCCO)cc1)c2ccc(OCCO)cc2,water,298,-2.655196364,mol/L,316.39700000000005,2.7547000000000015,58.92,2.0,4.0
CC(C)(c1ccc(OCCO)cc1)c2ccc(OCCO)cc2,water,298,-2.656003776,mol/L,316.39700000000005,2.7547000000000015,58.92,2.0,4.0
OC(=O)c1ccccc1C(O)=O,water,298,-1.377532173,mol/L,166.13199999999998,1.083,74.6,2.0,2.0
[Br-].CCCC[N+](CCCC)(CCCC)CCCC,water,298,1.332024844,mol/L,322.37500000000006,2.007599999999999,0.0,0.0,0.0
CC(C)(c1ccc(OCCO)cc1)c2ccc(OCCO)cc2,water,298,-2.660000762,mol/L,316.39700000000005,2.7547000000000015,58.92,2.0,4.0
CCCCCCCCCO,water,298,-3.316905221,mol/L,144.258,2.7293000000000016,20.23,1.0,1.0
[OH-].[OH-].[Cd++],water,298,-3.323633394,mol/L,146.42600000000002,-0.35609999999999997,60.0,0.0,2.0
Fc1ccc2O[C@@H](CCc2c1)[C@@H]3CO3.Fc4ccc5O[C@@H](CCc5c4)[C@H]6CO6.Fc7ccc8O[C@H](CCc8c7)[C@@H]9CO9.Fc%10ccc%11O[C@H](CCc%11c%10)[C@H]%12CO%12,water,298,-3.052101177,mol/L,776.82,7.672400000000009,87.04,0.0,8.0
CC(C)C1CCC(C)CC1=O,water,298,-2.350645181,mol/L,154.253,2.6477000000000013,17.07,0.0,1.0
CC(C)=CCC\C(C)=C\CO,water,298,-2.351909504,mol/L,154.253,2.6714000000000016,20.23,1.0,1.0
CCCCCCCCC(O)=O,water,298,-2.366810106,mol/L,158.241,2.821600000000001,37.3,1.0,1.0
CCCCCCCC(O)=O,water,298,-2.32649851,mol/L,144.214,2.4315000000000007,37.3,1.0,1.0
Nc1c(Cl)cc(Cl)cc1Cl,water,298,-3.464462027,mol/L,196.464,3.229,26.02,1.0,1.0
COc1ccccc1OC,water,298,-1.314975067,mol/L,138.16599999999997,1.7038,18.46,0.0,2.0
Nc1cnn(CCO)c1N.O[S](O)(=O)=O,water,298,0.444259344,mol/L,240.24099999999999,-1.612999999999999,164.68999999999997,5.0,7.0
[Na+].[Na+].[O-][S](=O)(=O)c1cccc(c1)[S]([O-])(=O)=O,water,298,0.370947285,mol/L,282.206,-6.497199999999997,114.39999999999998,0.0,6.0
CCCCOCCO[P](=O)(OCCOCCCC)OCCOCCCC,water,298,-2.778562332,mol/L,398.47700000000026,4.594400000000005,72.45000000000002,0.0,7.0
OC(=O)CCCCC(O)=O.C1CNCCN1,water,298,-0.545810358,mol/L,232.28,-0.10479999999999862,98.66,4.0,4.0
OC(O)C(Cl)(Cl)Cl,water,298,1.601000553,mol/L,165.403,0.6672999999999998,40.46,2.0,2.0
CCCCCCOC,water,298,-2.245085326,mol/L,116.204,2.2131,9.23,0.0,1.0
[O-][N+](=O)c1cc(ccc1Cl)C(F)(F)F,water,298,-2.533704672,mol/L,225.55299999999994,3.2670000000000003,43.14,0.0,2.0
[O-][N+](=O)c1cccc(Cl)c1Cl,water,298,-3.458527028,mol/L,192.00099999999998,2.901600000000001,43.14,0.0,2.0
[O-][N+](=O)N1CN(CN(C1)[N+]([O-])=O)[N+]([O-])=O,water,298,-3.522455965,mol/L,222.117,-1.6463999999999996,139.14000000000001,0.0,6.0
C[C@H]1C[C@H]2[C@@H]3CCC4=CC(=O)C=C[C@]4(C)[C@@]3(F)[C@@H](O)C[C@]2(C)[C@@]1(O)C(=O)CO,water,298,-3.7709815,mol/L,392.4670000000002,1.8957000000000002,94.83,3.0,5.0
C[C@]12CC[C@H]3[C@@H](CCC4=CC(=O)CC[C@]34C)[C@@H]1CCC2=O,water,298,-3.637451823,mol/L,286.415,4.087400000000003,34.14,0.0,2.0
CC(C)c1ccc(cc1)C(C)CC=O,water,298,-3.459862901,mol/L,190.28599999999994,3.502500000000002,17.07,0.0,1.0
[Ca++].CCCCCCC(O)CCCCCCCCCCC([O-])=O.CCCCCCC(O)CCCCCCCCCCC([O-])=O,water,298,-3.985975952,mol/L,639.0280000000001,7.55640000000001,120.72,2.0,6.0
CC1CC(=CC(C)C1CO)C,water,298,-2.371197393,mol/L,154.253,2.2171000000000003,20.23,1.0,1.0
CC/C(C)=C/CCC(C)(O)C=C,water,298,-2.409128664,mol/L,168.27999999999997,3.0599000000000016,20.23,1.0,1.0
O=C(OCC1CO1)c2ccc(C(=O)OCC3CO3)c(c2)C(=O)OCC4CO4,water,298,-2.762296476,mol/L,378.33300000000014,0.3533999999999997,116.49,0.0,9.0
CC1CC(C)(CO1)c2ccccc2,water,298,-2.433237945,mol/L,176.25900000000001,2.7531000000000008,9.23,0.0,1.0
CCCCC(CC)C(=O)OCC,water,298,-3.423291255,mol/L,172.26799999999997,2.765900000000001,26.3,0.0,2.0
Oc1cccc2cccnc12,water,298,-2.349605255,mol/L,145.16099999999997,1.9403999999999995,33.120000000000005,1.0,2.0
[Na+].[Na+].[Na+].CCN(c1cccc(c1)[S](=O)(=O)CCO[S]([O-])(=O)=O)c2nc(Cl)nc(Nc3ccc4C(=O)C(=N/Nc5ccc(OC)cc5[S]([O-])(=O)=O)\C(=Cc4c3)[S]([O-])(=O)=O)n2,water,298,-1.161671108,mol/L,940.2560000000002,-6.847700000000019,319.59999999999997,2.0,21.0
[OH-].[OH-].[Zn++],water,298,-2.185828855,mol/L,99.404,-0.35609999999999997,60.0,0.0,2.0
CSC,water,298,-0.981795382,mol/L,62.137,0.9792,0.0,0.0,1.0
CCCCCC(=O)CC,water,298,-2.297034556,mol/L,128.21499999999997,2.5458000000000007,17.07,0.0,1.0
CCOc1ccccc1OCC,water,298,-2.41045076,mol/L,166.21999999999994,2.484000000000001,18.46,0.0,2.0
C\C=C\C,water,298,-1.939465074,mol/L,56.108000000000004,1.5824,0.0,0.0,0.0
OCC(O)C(O)C(O)CO,water,298,0.625274489,mol/L,152.146,-2.9463000000000004,101.15,5.0,5.0
CC(=C)C=C,water,298,-2.025733236,mol/L,68.11900000000001,1.7485,0.0,0.0,0.0
C.O[S](O)(=O)=O,water,298,-2.250511345,mol/L,114.12199999999999,-0.016699999999999826,74.6,2.0,2.0
CCCCCCCC(=O)OC,water,298,-3.390433151,mol/L,158.24099999999999,2.5199000000000007,26.3,0.0,2.0
CCCCCCCC/C=C/CCCCCCCCNCCCNCCCNCCCN,water,298,-3.836075758,mol/L,438.78900000000027,5.921700000000004,62.11,4.0,4.0
CC(C)CCCC(C)CCO,water,298,-3.393259787,mol/L,158.285,2.831200000000002,20.23,1.0,1.0
[Na+].[Na+].CCN1C(=C(N=Nc2ccc(cc2)[S](=O)(=O)c3ccc(cc3)N=NC4=C(O)N(CC)C(=O)C(=C4C)C[S]([O-])(=O)=O)C(=C(C[S]([O-])(=O)=O)C1=O)C)O,water,298,-2.10218738,mol/L,808.7810000000003,-2.160159999999992,282.44,2.0,18.0
C.O[S](O)(=O)=O,water,298,-2.254595649,mol/L,114.12199999999999,-0.016699999999999826,74.6,2.0,2.0
CC(=O)c1ccccc1,water,298,-1.28038684,mol/L,120.15099999999995,1.8892,17.07,0.0,1.0
C[C@]12CC[C@H]3[C@@H](CC=C4C[C@@H](O)CC[C@]34C)[C@@H]1CCC2=O,water,298,-3.65726821,mol/L,288.43100000000004,3.8792000000000026,37.3,1.0,2.0
CCCCCC(O)C(/C)=C/CC,water,298,-3.431863898,mol/L,170.29599999999996,3.283900000000002,20.23,1.0,1.0
CCCCOC(=O)CCC,water,298,-2.361047779,mol/L,144.21399999999997,2.1298000000000004,26.3,0.0,2.0
CCCCCCO,water,298,-1.212085607,mol/L,102.17699999999999,1.559,20.23,1.0,1.0
COc1ccc(COC(C)=O)cc1,water,298,-2.458494476,mol/L,180.203,1.7583,35.53,0.0,3.0
OC(=O)c1ccccc1C(O)=O,water,298,-1.424573276,mol/L,166.13199999999998,1.083,74.6,2.0,2.0
O=CC1CCC2C3CCC(C3)C12,water,298,-2.419967647,mol/L,164.248,2.2576,17.07,0.0,1.0
CC(C)c1ccccc1C(C)C.OO,water,298,-2.497713585,mol/L,196.28999999999996,3.9508000000000028,40.46,2.0,2.0
Cc1cccc(C)c1O,water,298,-1.292396158,mol/L,122.16699999999999,2.00904,20.23,1.0,1.0
[Re],water,298,-0.475507957,mol/L,186.207,-0.0025,0.0,0.0,0.0
CCC(O)c1ccccc1,water,298,-2.340367591,mol/L,136.194,2.13,20.23,1.0,1.0
CC(=O)c1cccc(c1)C(F)(F)F,water,298,-2.482107917,mol/L,188.14799999999994,2.9080000000000013,17.07,0.0,1.0
Nc1ccc(Cl)cc1Cl,water,298,-2.417174258,mol/L,162.019,2.5756000000000006,26.02,1.0,1.0
CC(=O)O[C@@H]1C[C@@H]2CC[C@@]1(C)C2(C)C,water,298,-3.496323842,mol/L,196.29,2.7643000000000013,26.3,0.0,2.0
NN[S](=O)(=O)c1ccc(Oc2ccc(cc2)[S](=O)(=O)NN)cc1,water,298,-3.758489195,mol/L,358.40100000000007,-0.21709999999999935,153.61,4.0,7.0
[Sr++].[O-][P]([O-])([O-])=O,water,298,-3.468385388,mol/L,182.58999999999997,-3.2054,86.25,0.0,4.0
Cc1cccc(C)c1C.C2Cc3ccccc3C2.C4C=Cc5ccccc45,water,298,-3.757269876,mol/L,354.53700000000003,7.043060000000007,0.0,0.0,0.0
CC/C=C/CC/C=C/C=C,water,298,-3.34190657,mol/L,136.23799999999997,3.4750000000000023,0.0,0.0,0.0
OC\C=C/CO,water,298,0.846685164,mol/L,88.10600000000001,-0.47280000000000005,40.46,2.0,2.0
COc1ccc(COC(C)=O)cc1,water,298,-2.466181305,mol/L,180.203,1.7583,35.53,0.0,3.0
CCOCCOCCOCCOC(=O)C(C)=C,water,298,-0.603011426,mol/L,246.30299999999994,1.1753999999999998,53.99,0.0,5.0
C.O[S](O)(=O)=O,water,298,-2.269201003,mol/L,114.12199999999999,-0.016699999999999826,74.6,2.0,2.0
CC(=O)OCC1=C(N2[C@H](SC1)[C@H](N)C2=O)C(O)=O,water,298,-2.648977722,mol/L,272.282,-0.8693999999999988,109.93,2.0,6.0
OC(=O)c1cc(ccc1O)[N+]([O-])=O,water,298,-2.477403573,mol/L,183.11899999999997,0.9985999999999999,100.66999999999999,2.0,4.0
CCCCCCCCC(O)=O,water,298,-3.408330544,mol/L,158.241,2.821600000000001,37.3,1.0,1.0
CCCCCCCCCC(O)=O,water,298,-3.445216137,mol/L,172.268,3.2117000000000013,37.3,1.0,1.0
[K].CCCCCCCCCCCCCCCCCC.O[P](O)(O)=O,water,298,-3.802339752,mol/L,391.594,5.958400000000009,77.75999999999999,3.0,1.0
CCC(C)c1ccccc1,water,298,-3.340363231,mol/L,134.22199999999998,3.2001000000000017,0.0,0.0,0.0
CC(C)C,water,298,-2.977604072,mol/L,58.123999999999995,1.6622999999999999,0.0,0.0,0.0
CCCC,water,298,-2.977604072,mol/L,58.123999999999995,1.8064,0.0,0.0,0.0
CC,water,298,-2.691382006,mol/L,30.07,1.0262,0.0,0.0,0.0
C,water,298,-2.418534161,mol/L,16.043,0.6361,0.0,0.0,0.0
CCC,water,298,-2.857657623,mol/L,44.096999999999994,1.4163,0.0,0.0,0.0
CC1(C)C2CC=C(CCC=O)C1C2,water,298,-3.46576061,mol/L,178.275,2.9579000000000013,17.07,0.0,1.0
OC(=O)Cc1ccc(O)cc1,water,298,-0.399080411,mol/L,152.149,1.0192999999999999,57.53,2.0,2.0
COc1ccc(COC(C)=O)cc1,water,298,-2.474006642,mol/L,180.203,1.7583,35.53,0.0,3.0
Cc1cccc(C)c1O,water,298,-1.305413941,mol/L,122.16699999999999,2.00904,20.23,1.0,1.0
[H+].[NH4+].[F-].[F-],water,298,1.023394133,mol/L,57.043000000000006,-5.5033,36.5,1.0,0.0
[Na+].[Na+].[Na+].[O-][S](=O)(=O)c1ccc2c(c1)C=C(C(=O)/C2=N/Nc3ccc(c4ccccc34)[S]([O-])(=O)=O)[S]([O-])(=O)=O,water,298,-1.003232841,mol/L,604.4830000000003,-8.055000000000014,213.05999999999997,1.0,12.0
Nc1nc(N)nc(n1)c2ccccc2,water,298,-2.494168514,mol/L,187.20600000000005,0.7029999999999998,90.71,2.0,5.0
CC(C)(C)C1CCC(CC1)OC(=O)C=C,water,298,-3.539328096,mol/L,210.31699999999995,3.320500000000002,26.3,0.0,2.0
CC(C)C,water,298,-2.983318556,mol/L,58.123999999999995,1.6622999999999999,0.0,0.0,0.0
CCCC,water,298,-2.983318556,mol/L,58.123999999999995,1.8064,0.0,0.0,0.0
CC,water,298,-2.69709649,mol/L,30.07,1.0262,0.0,0.0,0.0
C,water,298,-2.424248645,mol/L,16.043,0.6361,0.0,0.0,0.0
CCC,water,298,-2.863372106,mol/L,44.096999999999994,1.4163,0.0,0.0,0.0
CCOc1ccc2NC(C)(C)C=C(C)c2c1,water,298,-3.558932458,mol/L,217.31199999999998,3.692700000000002,21.259999999999998,1.0,2.0
Brc1ccc(Br)c(C=C)c1,water,298,-4.578730408,mol/L,261.94399999999996,3.8546000000000014,0.0,0.0,0.0
[Mg++],water,298,-3.559620823,mol/L,24.305,-0.3808,0.0,0.0,0.0
Cc1ccccc1NC(=O)c2cc3ccccc3cc2O,water,298,-4.623441954,mol/L,277.32300000000004,4.106120000000002,49.33,2.0,2.0
[Ca++].[Ca++].[Ca++].[O-][P]([O-])([O-])=O.[O-][P]([O-])([O-])=O,water,298,-4.674040021,mol/L,310.17400000000004,-6.791600000000001,172.5,0.0,8.0
CC\C=C/CCOC(=O)C\C=C/CC,water,298,-4.478650579,mol/L,196.29,3.242200000000002,26.3,0.0,2.0
Oc1cc(Cl)ccc1Oc2ccc(Cl)cc2Cl,water,298,-4.648802713,mol/L,289.54499999999996,5.144700000000002,29.46,1.0,2.0
COC(=O)c1nc(Cl)c(Cl)nc1N,water,298,-4.534838609,mol/L,222.031,1.1522,78.1,1.0,5.0
CCCCCCC(C)(C)S,water,298,-4.39611809,mol/L,160.326,3.6652000000000027,0.0,1.0,1.0
O1[Pb]O[Pb]2O[Pb]1O2,water,298,-4.008053211,mol/L,685.596,-1.4160000000000001,36.92,0.0,4.0
CCCCCCCC\C=C/CCCCCCCC(=O)N(CCCC)CCCC,water,298,-4.788985441,mol/L,393.7000000000002,8.452700000000007,20.310000000000002,0.0,1.0
CC(=C)C(=O)OC1CC2CCC1(C)C2(C)C,water,298,-4.544220436,mol/L,222.32799999999995,3.320500000000002,26.3,0.0,2.0
COC(=O)c1nc(Cl)c(Cl)nc1N,water,298,-4.544324357,mol/L,222.031,1.1522,78.1,1.0,5.0
CCCCCCCCCOC(C)=O,water,298,-4.47086065,mol/L,186.295,3.3001000000000023,26.3,0.0,2.0
CCCCCCCCCCCCCCCCCCCCCCCCCCCCCCCCCCCCCCCCCCCCCCCCCCCCCCCCCCCCCCCCCCCCCCCCCC.CCCCCCCCCCCCCCCCCCCCCCCCCCCCCCCCCCCCC(CCCC)(CCCC)CCCCCCCCCCCCCCCC(CCCC)(CCCC)CCCCC.CCCc1cc(C)cc(C)c1.c2ccc(cc2)c3ccccc3.c4ccc5cc6ccccc6cc5c4,water,298,-5.611788269,mol/L,2560.7229999999945,68.54113999999966,0.0,0.0,0.0