Solute,Solvent,Temperature_K,Solubility,Units,MW,LogP,TPSA,HBD,HBA
CCC(O)OC(O)CC,water,298,0.8723,mol/L,134.17499999999998,0.4598,49.69,2.0,3.0
N[S](=O)(=O)c1ccc(NC2O[C@H](CO)[C@@H](O)[C@H](O)[C@@H]2O)cc1,water,298,-0.9801,mol/L,334.35,-2.4541999999999984,162.34,6.0,8.0
CCSC(=O)COc1ccc(Cl)cc1C,water,298,-5.027,mol/L,244.743,3.3069200000000016,26.3,0.0,3.0
CC(=O)C(=N\O)/c1ccccc1,water,298,-2.3676,mol/L,163.176,1.4539,49.66,1.0,3.0
CNC(=O)N(C)c1sc(nn1)C(F)(F)F,water,298,-2.0584,mol/L,240.20999999999998,1.3325,58.120000000000005,1.0,4.0
Br\C=C\Br,water,298,-1.7415,mol/L,185.84599999999998,2.2474,0.0,0.0,0.0
OC(=O)\C=C/c1cccc(O)c1,water,298,-2.099,mol/L,164.16,1.49,57.53,2.0,2.0
COCC(C)OCC(C)OC(C)CO,water,298,0.6855,mol/L,206.28199999999998,0.8238000000000001,47.92,1.0,4.0
CC(C)c1ccc(cc1)c2ccccc2,water,298,-5.5147,mol/L,196.29299999999998,4.477000000000004,0.0,0.0,0.0
[NH4+].CCO[P]([O-])(=O)C(N)=O,water,298,0.7693,mol/L,170.105,0.031199999999999783,128.95000000000002,2.0,4.0
CC(C)=CC1C(C(=O)OCc2cccc(Oc3ccccc3)c2)C1(C)C,water,298,-7.5579,mol/L,350.4580000000001,5.760500000000005,35.53,0.0,3.0
CSC1=CC(=O)c2ccccc2C1=O,water,298,-4.4651,mol/L,204.24999999999997,2.3125,34.14,0.0,3.0
CCOC1Oc2ccc(O[S](C)(=O)=O)cc2C1(C)C,water,298,-3.7579,mol/L,286.34900000000005,2.0576,61.830000000000005,0.0,5.0
CCNc1nc(NC(C)CC)nc(OC)n1,water,298,-2.5604,mol/L,225.29599999999996,1.5223999999999998,71.96000000000001,2.0,6.0
CCCN(CC1CC1)c2c(cc(cc2[N+]([O-])=O)C(F)(F)F)[N+]([O-])=O,water,298,-6.5407,mol/L,347.293,4.148200000000004,89.51999999999998,0.0,5.0
CNC(=O)O/N=C/C1(C)SCC(C)S1,water,298,-2.3698,mol/L,234.34599999999998,1.9128999999999998,50.69,1.0,5.0
Cc1ccc(O[P](=O)(Oc2ccccc2)Oc3ccccc3)cc1,water,298,-6.1517,mol/L,340.31500000000005,5.6399200000000045,44.760000000000005,0.0,4.0
Cc1ccc(O[P](=O)(Oc2ccccc2)Oc3ccccc3C)cc1,water,298,-6.3733,mol/L,354.3420000000001,5.948340000000005,44.760000000000005,0.0,4.0
CCCCCCCCN1SC=CC1=O,water,298,-2.6301,mol/L,213.346,3.2703000000000024,22.0,0.0,3.0
Clc1ccccc1c2c(Cl)c(Cl)c(Cl)c(Cl)c2Cl,water,298,-8.0133,mol/L,360.88200000000006,7.274,0.0,0.0,0.0
CCO[P](=O)(OCC)OCC(C)C,water,298,-1.1765,mol/L,210.20999999999998,2.8401000000000014,44.760000000000005,0.0,4.0
CC(=O)C(CC(O)=O)=Cc1ccccc1,water,298,-1.6111,mol/L,204.225,2.1337,54.37,1.0,2.0
BrC1=CNC(=NC1=O)c2ccccc2,water,298,-3.4792,mol/L,251.083,2.1994,45.75,1.0,2.0
Clc1cc(c2ccccc2)c(Cl)c(Cl)c1Cl,water,298,-6.8026,mol/L,291.99199999999996,5.967200000000002,0.0,0.0,0.0
CC(C)CCCCCO,water,298,-2.3085,mol/L,130.23100000000002,2.1951000000000005,20.23,1.0,1.0
CCCC(=O)OCCOCCOCCOC(=O)CCC,water,298,-1.5598,mol/L,290.356,1.7061999999999995,71.06,0.0,6.0
O=C(NC(=O)c1cccnc1)Nc2ccccc2,water,298,-3.3825,mol/L,241.25,2.0435,71.09,2.0,3.0
O=C(OCCCOCCCOC(=O)c1ccccc1)c2ccccc2,water,298,-4.3584,mol/L,342.391,3.497200000000002,61.830000000000005,0.0,5.0
ClC1CC(Cl)(Cl)C(Cl)C(Cl)C1Cl.ClC2CCC(Cl)(Cl)C(Cl)C2(Cl)Cl.ClC3C(Cl)C(Cl)C(Cl)C(Cl)C3Cl,water,298,-4.9408,mol/L,872.496,11.98079999999999,0.0,0.0,0.0
CC(C)CCCCCCCOC(=O)CCCCC(=O)OCCCCCCCC(C)C,water,298,-9.9867,mol/L,426.6820000000003,7.62640000000001,52.60000000000001,0.0,4.0
CCCCCCCCCCC(O)CCC,water,298,-5.837,mol/L,214.39299999999997,4.678200000000004,20.23,1.0,1.0
CNC1=C(Cl)C(=O)N(N=C1)c2cccc(c2)C(F)(F)F,water,298,-3.9548,mol/L,303.671,2.9464000000000006,46.92,1.0,4.0
Clc1c(Cl)c(Cl)c2C(=O)OCc2c1Cl,water,298,-5.0365,mol/L,271.914,3.9706,26.3,0.0,2.0
CCOC(=O)Cc1[nH]nc2ccc(Cl)cc12,water,298,-3.0256,mol/L,238.674,2.3219000000000003,54.980000000000004,1.0,3.0
ClC(Cl)C(=O)NC1=C(Cl)C(=O)c2ccccc2C1=O,water,298,-5.0261,mol/L,318.54300000000006,2.4359,63.24,1.0,3.0
CC(C)CCCCCOC(=O)c1ccccc1C(=O)OCCCCCC(C)C,water,298,-6.6375,mol/L,390.5640000000003,6.433000000000007,52.60000000000001,0.0,4.0
C=CCOC1=N[S](=O)(=O)c2ccccc12,water,298,-3.1727,mol/L,223.25300000000001,1.3381,55.73,0.0,3.0
CCOC(C)C(=O)C(O)O,water,298,-0.1707,mol/L,148.15800000000002,-0.7088,66.76,2.0,4.0
Brc1ccc(c(Br)c1Br)c2c(Br)c(Br)c(Br)c(Br)c2Br,water,298,-9.351,mol/L,785.38,9.4536,0.0,0.0,0.0
CC(C)c1ccccc1O[P](=O)(Oc2ccccc2)Oc3ccccc3,water,298,-5.2239,mol/L,368.369,6.454900000000006,44.760000000000005,0.0,4.0
S=C1Nc2nc[nH]c2C=N1,water,298,-2.5803,mol/L,152.18200000000002,1.0154899999999998,57.36,2.0,3.0
Oc1ccc(c(c2ccccc2)c1[N+]([O-])=O)[N+]([O-])=O,water,298,-3.7164,mol/L,260.205,2.875600000000002,106.50999999999999,1.0,5.0
CN(C)C(=S)Nc1ccc(Cl)cc1C,water,298,-3.6604,mol/L,228.748,2.9068200000000006,15.27,1.0,1.0
Clc1cccc(Cl)c1Oc2ccccc2,water,298,-5.0605,mol/L,239.101,4.785700000000002,9.23,0.0,1.0
CC(C)=CC1C(C(=O)OCc2coc(Cc3ccccc3)c2)C1(C)C,water,298,-6.0524,mol/L,338.44700000000006,5.1520000000000055,39.44,0.0,3.0
OC(=O)[C@@H]1CC[C@@H](SS1)C(O)=O,water,298,-1.1709,mol/L,208.26000000000002,1.0679999999999998,74.6,2.0,4.0
CN1C=C(C(=O)NC1=O)[N+]([O-])=O,water,298,-1.9977,mol/L,171.11199999999997,-1.0181999999999998,98.0,1.0,5.0
CC(C)CCCCCCOC(=O)c1ccccc1C(=O)OCCCCCCC(C)C,water,298,-6.3208,mol/L,418.6180000000004,7.2132000000000085,52.60000000000001,0.0,4.0
CCCCCC(O)CC,water,298,-2.3468,mol/L,130.23099999999997,2.3376,20.23,1.0,1.0
CCN(CC)c1c(cc(c(N)c1[N+]([O-])=O)C(F)(F)F)[N+]([O-])=O,water,298,-5.4668,mol/L,322.243,2.9502000000000006,115.54000000000002,1.0,6.0
CCCN(CCC)c1c(cc(c(N)c1[N+]([O-])=O)C(F)(F)F)[N+]([O-])=O,water,298,-7.4305,mol/L,350.297,3.730400000000002,115.54000000000002,1.0,6.0
CCN(OC(=O)c1ccccc1)C(=O)c2c(OC)ccc(Cl)c2OC,water,298,-4.0837,mol/L,363.797,3.591300000000002,65.07000000000001,0.0,5.0
CC(C)NCC(O)COc1ccc(CC(N)=O)cc1,water,298,-1.3016,mol/L,266.34099999999995,0.45210000000000006,84.57999999999998,3.0,4.0
CCC(CC)(C(N)=O)C(N)=O,water,298,-1.1992,mol/L,158.20099999999996,-0.23660000000000003,86.18,2.0,2.0
COC(=O)N(C)C(=O)CS[P](C)(=S)OC,water,298,-1.9563,mol/L,271.3,1.5301,55.84,0.0,6.0
CCN(CC)c1nc(C)cc(O[P](=S)(OC)OC)n1,water,298,-4.5503,mol/L,305.34000000000003,2.5273200000000005,56.71000000000001,0.0,7.0
CCCCCCCCCCCCC(O)CCC,water,298,-6.7708,mol/L,242.44699999999995,5.458400000000006,20.23,1.0,1.0
ON(c1ccccc1)C(=O)c2cccc3ccccc23,water,298,-3.9433,mol/L,263.296,3.8758000000000017,40.54,1.0,2.0
ON(C(=O)c1ccccc1)c2cccc3ccccc23,water,298,-3.3065,mol/L,263.29600000000005,3.8758000000000026,40.54,1.0,2.0
ON(c1ccccc1)C(=O)c2cc(cc(c2)[N+]([O-])=O)[N+]([O-])=O,water,298,-3.6367,mol/L,303.23,2.5390000000000006,126.82000000000002,1.0,6.0
NC(=S)SCC(O)=O,water,298,-0.7482,mol/L,151.21200000000002,0.047800000000000065,63.32,2.0,3.0
OC(=O)CNC(=S)SCC(O)=O,water,298,-1.3011,mol/L,209.248,-0.23669999999999997,86.63,3.0,4.0
O=C(NCCc1c[nH]cn1)c2ccccc2,water,298,-0.634,mol/L,215.256,1.3821999999999999,57.78,2.0,2.0
CC(C)CCCCCCCO[P](=O)(Oc1ccccc1)Oc2ccccc2,water,298,-5.7165,mol/L,390.46000000000004,7.265700000000007,44.760000000000005,0.0,4.0
CCCOCC(C)OCC(C)O,water,298,-0.0701,mol/L,176.25599999999997,1.1988999999999999,38.69,1.0,3.0
CCCCOCC(C)OCC(C)O,water,298,-0.6262,mol/L,190.283,1.589,38.69,1.0,3.0
CCSCc1ccccc1OC(=O)NC,water,298,-2.0927,mol/L,225.313,2.6579000000000006,38.33,1.0,3.0
C1O[C@@H]1[C@@H]2CO2,water,298,1.065,mol/L,86.09,-0.21599999999999997,25.06,0.0,2.0
CC[S](=O)(=O)c1sc(nn1)N(C)C(=O)NC,water,298,-1.945,mol/L,264.332,0.1073,92.26,1.0,6.0
C[C@@H](Oc1cc(Cl)c(Cl)cc1Cl)C(O)=O,water,298,-3.1295,mol/L,269.511,3.4987000000000013,46.53,1.0,2.0
CCC1CCC(O)O1,water,298,-0.0651,mol/L,116.15999999999998,0.8937999999999999,29.46,1.0,2.0
C1O[C@H]1[C@H]2CO2,water,298,1.065,mol/L,86.09,-0.21599999999999997,25.06,0.0,2.0
CC1CCC2(CCC(C)O2)O1,water,298,-0.4487,mol/L,156.225,2.0805,18.46,0.0,2.0
CC1=CN([C@H]2C[C@H](N=[N+]=[N-])[C@@H](CO)O2)C(=O)NC1=O,water,298,-1.1221,mol/L,267.245,-0.19628000000000012,133.07999999999998,2.0,6.0
OCCOCCOC(=O)c1ccccc1Nc2cccc(c2)C(F)(F)F,water,298,-5.3633,mol/L,369.33900000000006,3.6147000000000027,67.78999999999999,2.0,5.0
COc1ncnc2nccnc12,water,298,-1.113,mol/L,162.15200000000002,0.4283999999999998,60.790000000000006,0.0,5.0
CCO[P](=S)(OCC)SCN1C(=O)Oc2ccccc12,water,298,-5.1905,mol/L,333.37100000000004,3.5827000000000018,53.6,0.0,7.0
C1c2ccccc2c3ccc4ccccc4c13,water,298,-6.678,mol/L,216.283,4.411000000000003,0.0,0.0,0.0
C1c2ccccc2c3cc4ccccc4cc13,water,298,-8.0318,mol/L,216.283,4.411000000000002,0.0,0.0,0.0
COC(=O)C(/C)=C/O[P](=S)(OC)OC,water,298,-2.7785,mol/L,240.21699999999998,1.5970999999999997,53.99000000000001,0.0,6.0
CN(CCO)c1nc2N(C)C(=O)N(C)C(=O)c2n1C,water,298,-0.6488,mol/L,267.289,-1.6007999999999987,85.28999999999999,1.0,8.0
CC(C)CNC(=O)N1CCNC1=O,water,298,-2.1538,mol/L,185.22699999999998,0.3772000000000003,61.440000000000005,2.0,2.0
CC1=CSC(=S)N1CC(O)=O,water,298,-1.9632,mol/L,189.261,1.6721100000000002,42.230000000000004,1.0,4.0
CN(C(C)=O)c1c(I)c(NC(C)=O)c(I)c(C(=O)NC2[C@@H](O)OC(CO)[C@@H](O)C2O)c1I,water,298,-0.1982,mol/L,789.0990000000004,-0.028800000000000436,168.66,6.0,8.0
CCN[P](=S)(OC)OC(/C)=C\C(=O)OC(C)C,water,298,-3.4078,mol/L,281.314,2.3388,56.790000000000006,1.0,5.0
CCCCC(C)C(C)O,water,298,-2.0578,mol/L,130.231,2.1935000000000007,20.23,1.0,1.0
COC(=O)Nc1[nH]c2cc(ccc2n1)C(=O)c3ccccc3,water,298,-3.6172,mol/L,295.298,2.972200000000001,84.07999999999998,2.0,4.0
Cc1cc2cccc3ccc4c5ccccc5cc1c4c23,water,298,-8.5224,mol/L,266.343,6.045620000000003,0.0,0.0,0.0
CC(C)(O)CCCC1=CCC(CC1)C=O,water,298,-1.5376,mol/L,210.31699999999998,2.8530000000000015,37.3,1.0,2.0
Clc1cc(Cl)c2c(Cl)c(Cl)c(Cl)c(Cl)c2c1Cl,water,298,-8.775,mol/L,369.2890000000001,7.4136,0.0,0.0,0.0
NC1N=C(N)NC(=O)C1=O,water,298,-1.6978,mol/L,142.118,-2.7152000000000003,110.57,3.0,5.0
OC(=O)c1oc(Cl)c(Cl)c1Cl,water,298,-2.2193,mol/L,215.419,2.9379999999999997,50.44,1.0,2.0
CCCCCCC(C\C=C/CCCCCCCC(O)=O)O[S](O)(=O)=O,water,298,-0.5781,mol/L,378.531,4.906400000000003,100.9,2.0,4.0
COc1ccc2NC(=O)C=C(C([O-])=O)c2c1,water,298,-3.1104,mol/L,218.188,-0.0998000000000005,82.22,1.0,4.0
O[C@@H](C=O)[C@H]1OC(=O)[C@@H](O)[C@H]1O,water,298,0.1641,mol/L,176.12400000000002,-2.8066,104.06,3.0,6.0
OC(=O)c1occ(Br)c1Br,water,298,-2.0887,mol/L,269.876,2.5027999999999997,50.44,1.0,2.0
NC(C(O)C(O)=O)C(N)=O,water,298,-1.1494,mol/L,148.11799999999997,-2.755500000000001,126.64000000000001,4.0,4.0
CCC1=CNC(=O)N=C1N,water,298,-1.0197,mol/L,139.15799999999996,-0.08550000000000002,71.77,2.0,3.0
Clc1ccc(cc1)c2c(Cl)cc(Cl)cc2Cl,water,298,-6.5058,mol/L,291.99199999999996,5.967200000000001,0.0,0.0,0.0
Clc1ccc(cc1Cl)c2ccc(Cl)c(Cl)c2Cl,water,298,-7.9823,mol/L,326.437,6.6206000000000005,0.0,0.0,0.0
OC(=O)[C@H]1CC[C@@H](SS1)C(O)=O,water,298,-1.5241,mol/L,208.26000000000002,1.0679999999999998,74.6,2.0,4.0
Clc1cc(cc(Cl)c1Cl)c2cc(Cl)c(Cl)c(Cl)c2,water,298,-8.8498,mol/L,360.88200000000006,7.274000000000001,0.0,0.0,0.0
CC12CC1(C)C(=O)N(C2=O)c3cc(Cl)cc(Cl)c3,water,298,-4.8003,mol/L,284.142,3.2829000000000024,37.38,0.0,2.0
OC(=O)/C=C/c1cccc(Br)c1,water,298,-2.636,mol/L,227.057,2.546900000000001,37.3,1.0,1.0
CN(C=Nc1ccc(C)cc1C)C=Nc2ccc(C)cc2C,water,298,-5.4675,mol/L,293.41400000000004,4.871880000000004,27.96,0.0,2.0
Clc1cc(Cl)c(c(Cl)c1Cl)c2c(Cl)cc(Cl)c(Cl)c2Cl,water,298,-9.1,mol/L,429.77200000000016,8.580799999999998,0.0,0.0,0.0
CCc1ccccc1NC(C)=O,water,298,-1.5906,mol/L,163.21999999999997,2.2074,29.1,1.0,1.0
ClC1=C(Cl)C2(Cl)[C@@H]3CO[S](=O)OC[C@@H]3[C@@]1(Cl)C2(Cl)Cl,water,298,-5.9563,mol/L,406.9290000000001,3.689800000000001,35.53,0.0,3.0
CCCN(CCCl)c1c(cc(cc1[N+]([O-])=O)C(F)(F)F)[N+]([O-])=O,water,298,-5.5968,mol/L,355.70000000000005,3.977000000000003,89.51999999999998,0.0,5.0
Clc1cc(Cl)cc(c1)c2cc(Cl)cc(Cl)c2,water,298,-8.3748,mol/L,291.992,5.967200000000002,0.0,0.0,0.0
Clc1cc(Cl)c(Cl)c(c2ccccc2)c1Cl,water,298,-7.25,mol/L,291.9920000000001,5.967200000000002,0.0,0.0,0.0
CCC(C)C(NC(C)=O)C(O)=O,water,298,-1.2011,mol/L,173.212,0.6218000000000001,66.4,2.0,2.0
CCC(C)Nc1c(cc(cc1[N+]([O-])=O)C(C)(C)C)[N+]([O-])=O,water,298,-5.4703,mol/L,295.339,4.010900000000003,98.31,1.0,5.0
CC(=O)c1cc(O)c(O)c(O)c1,water,298,-1.4711,mol/L,168.14799999999997,1.0059999999999998,77.76,3.0,4.0
CCCN(CCC)c1c(cc(cc1[N+]([O-])=O)C(C)C)[N+]([O-])=O,water,298,-6.4491,mol/L,309.36600000000004,4.252800000000004,89.51999999999998,0.0,5.0
NN[P](=O)(Oc1ccccc1)Oc2ccccc2,water,298,-2.2373,mol/L,264.221,2.7158000000000007,73.58,2.0,4.0
CNC(=O)N(C)c1sc(nn1)C(C)(C)C,water,298,-1.9606,mol/L,228.321,1.6112,58.120000000000005,1.0,4.0
COC(=O)C[S](=O)(=O)c1ccccc1,water,298,-1.1406,mol/L,214.24200000000002,0.6333000000000001,60.440000000000005,0.0,4.0
CCSC(=S)N[C@@H](C)C(O)=O,water,298,-0.9613,mol/L,193.293,1.0871,49.33,2.0,3.0
OC(=O)c1cc(Br)cc(C(O)=O)c1C(O)=O,water,298,-1.4481,mol/L,289.03700000000003,1.5436999999999999,111.9,3.0,3.0
COc1ccc(cc1)C(C(C)[N+]([O-])=O)c2ccc(OC)cc2,water,298,-4.5446,mol/L,301.34200000000004,3.5009000000000023,61.599999999999994,0.0,4.0
CN(C)C(=O)Nc1ccc(N2N=C(OC2=O)C(C)(C)C)c(Cl)c1,water,298,-4.3258,mol/L,338.7950000000001,2.8699000000000012,80.37,1.0,5.0
CC(C)c1cc(O[P](=O)(Oc2ccccc2)Oc3ccccc3)cc(c1)c4ccccc4,water,298,-6.8485,mol/L,444.4670000000001,8.121900000000007,44.760000000000005,0.0,4.0
Clc1cc(Br)c(OC(=O)C=C)c2ncccc12,water,298,-4.7168,mol/L,312.55,3.7421000000000015,39.19,0.0,3.0
Clc1cc2Oc3c(Cl)c(Cl)c(Cl)c(Cl)c3Oc2cc1Cl,water,298,-10.99,mol/L,390.86400000000015,7.505000000000001,18.46,0.0,2.0
COC(C)COC(C)CO,water,298,0.8292,mol/L,148.202,0.4186999999999999,38.69,1.0,3.0
CCN(CC)C(=O)SCc1ccccc1Cl,water,298,-4.031,mol/L,257.786,4.035000000000004,20.310000000000002,0.0,2.0
CCCS[P](=S)(OCC)Oc1ccc(Cl)cc1Cl,water,298,-6.693,mol/L,345.25300000000004,5.776400000000003,18.46,0.0,4.0
CNC(=O)O\N=C(\C)C(C)SC,water,298,-0.7353,mol/L,190.268,1.4698,50.69,1.0,4.0
CNC(=O)O\N=C(/C)C(C)[S](C)(=O)=O,water,298,-0.0267,mol/L,222.266,0.15139999999999998,84.82999999999998,1.0,5.0
CO[P](=O)(OC)OC1=C(Cl)CC2C=CC12,water,298,-2.0566,mol/L,250.618,3.060200000000002,44.760000000000005,0.0,4.0
OC(=O)CSC(SCC(O)=O)SCC(O)=O,water,298,-1.4243,mol/L,286.352,0.7233999999999999,111.9,3.0,6.0
Clc1cc(Cl)c(cc1Cl)c2cc(Cl)c(Cl)c(Cl)c2Cl,water,298,-8.0115,mol/L,395.3270000000001,7.9274000000000004,0.0,0.0,0.0
Clc1ccc(c(Cl)c1Cl)c2cc(Cl)c(Cl)c(Cl)c2Cl,water,298,-8.0566,mol/L,395.3270000000001,7.9274000000000004,0.0,0.0,0.0
CC(Nc1ccccc1Cl)C(O)=O,water,298,-2.3271,mol/L,199.63699999999994,2.2249999999999996,49.33,2.0,2.0
CC(C)N(Cc1ccccc1)C(=O)C(C)(C)C,water,298,-2.4704,mol/L,233.35499999999996,3.4697000000000022,20.310000000000002,0.0,1.0
OC(=O)CCCNC(=O)c1ccccc1,water,298,-1.2025,mol/L,207.22900000000004,1.2812000000000001,66.4,2.0,2.0
Fc1cccc(F)c1C(=O)NC(=O)Nc2ccc(Cl)cc2,water,298,-6.5892,mol/L,310.687,3.5801000000000016,58.2,2.0,2.0
CCC(C(CC)C(O)=O)C(O)=O,water,298,-1.4557,mol/L,174.196,1.208,74.6,2.0,2.0
CCCS[P](=S)(OCC)Oc1ccc(SC)cc1,water,298,-6.0171,mol/L,322.457,5.191500000000004,18.46,0.0,5.0
Cc1cc(O)c(cc1Cl)C(O)=O,water,298,-3.1248,mol/L,186.594,2.05222,57.53,2.0,2.0
Clc1ccc(C(Cn2ccnc2)OCC=C)c(Cl)c1,water,298,-3.2178,mol/L,297.185,4.133800000000003,27.05,0.0,3.0
C[C@H](NC(=O)[C@H](C)NC(=O)[C@@H](N)CC[P](C)(O)=O)C(O)=O,water,298,0.4904,mol/L,323.286,-1.301999999999997,158.82,5.0,5.0
Clc1cc(c(Cl)c(Cl)c1Cl)c2cc(Cl)c(Cl)c(Cl)c2Cl,water,298,-9.1987,mol/L,429.77200000000016,8.580799999999998,0.0,0.0,0.0
Clc1cc2Oc3c(Cl)c(Cl)c(Cl)c(Cl)c3Oc2c(Cl)c1Cl,water,298,-11.2485,mol/L,425.3090000000002,8.1584,18.46,0.0,2.0
CN1C(=C(/O)Nc2ccccn2)/C(=O)c3ccccc3[S]1(=O)=O,water,298,-4.1586,mol/L,331.35300000000007,1.7376,99.6,2.0,6.0
OC(=O)CCC(=O)c1ccc(cc1)c2ccccc2,water,298,-5.0609,mol/L,254.28500000000003,3.4011000000000022,54.37,1.0,2.0
CCO[P](=S)(NC(C)CC)Oc1cc(C)ccc1[N+]([O-])=O,water,298,-4.7299,mol/L,332.3620000000001,3.9311200000000035,73.63,1.0,5.0
Brc1cc(Br)c(Oc2cc(Br)cc(Br)c2Br)c(Br)c1,water,298,-8.1979,mol/L,643.587,8.053900000000002,9.23,0.0,1.0
CCO[P](=O)(Oc1ccc(Cl)cc1Cl)Oc2ccc(Cl)cc2Cl,water,298,-5.774,mol/L,416.0240000000001,6.902600000000002,44.760000000000005,0.0,4.0
Clc1ccc(c(Cl)c1)c2cccc(Cl)c2Cl,water,298,-6.6813,mol/L,291.99199999999996,5.967200000000002,0.0,0.0,0.0
CCC#CC(C)C,water,298,-2.7448,mol/L,96.17299999999997,2.0558,0.0,0.0,0.0
CO[P](=S)(OC)SCCSC(C)C,water,298,-3.4288,mol/L,260.38599999999997,3.3785000000000016,18.46,0.0,5.0
CCCCCCC(CC=CCCCCCCCC(O)=O)O[S](O)(=O)=O,water,298,-0.5781,mol/L,378.531,4.906400000000003,100.9,2.0,4.0
CCCCCCCCCCCCCCCCO,water,298,-6.7697,mol/L,242.44699999999992,5.460000000000006,20.23,1.0,1.0
CC(C)NC(=O)N1CC(=O)N(C1=O)c2cc(Cl)cc(Cl)c2,water,298,-4.3757,mol/L,330.17100000000005,2.880000000000001,69.72,1.0,3.0
CCC(C)N(C(C)CC)C(=O)SCc1ccccc1,water,298,-5.0484,mol/L,279.44899999999996,4.938800000000005,20.310000000000002,0.0,2.0
NC(=O)c1cc(Cl)cc(Cl)c1N,water,298,-2.0814,mol/L,205.04399999999998,1.6744999999999999,69.11,2.0,2.0
NC(=O)c1ncn(n1)[C@@H]2O[C@H](CO)[C@@H](O)[C@H]2O,water,298,-0.2355,mol/L,244.20700000000002,-3.0114999999999994,143.72000000000003,4.0,8.0
CC(CCc1ccccc1)NCC(O)c2ccc(O)c(c2)C(N)=O,water,298,-3.4482,mol/L,328.4120000000001,2.1353999999999997,95.57999999999998,4.0,4.0
CCCCCCCCCOC(=O)c1ccc(N)cc1,water,298,-6.0,mol/L,263.381,4.176200000000003,52.32,1.0,3.0
OC[C@H]1C[C@H](N[C@H]2C=C(CO)[C@@H](O)[C@H](O)[C@H]2O)[C@H](O)[C@@H](O)[C@@H]1O[C@@H]3O[C@H](CO)[C@@H](O)[C@H](O)[C@H]3O,water,298,0.3032,mol/L,497.49400000000014,-6.7526999999999875,253.01999999999992,12.0,14.0
COCCc1ccc(OCC(O)CNC(C)C)cc1,water,298,-1.1992,mol/L,267.36899999999997,1.6132,50.72,2.0,4.0
ON(c1ccccc1)C(=O)c2ccccc2I,water,298,-3.5304,mol/L,339.13199999999995,3.327200000000002,40.54,1.0,2.0
NCC[C@H](O)C(=O)N[C@@H]1C[C@H](N)[C@@H](O[C@H]2O[C@H](CN)[C@@H](O)[C@H](O)[C@H]2O)[C@H](O)[C@H]1O[C@H]3O[C@H](CO)[C@@H](O)[C@H](N)[C@H]3O,water,298,-0.5004,mol/L,585.6080000000002,-8.424200000000015,331.93999999999994,13.0,17.0
NC(=O)N[C@@H](Cc1ccccc1)C([O-])=O,water,298,-2.0958,mol/L,207.20899999999997,-0.9841000000000006,95.25,2.0,3.0
O=C1N=CNc2cccnc12,water,298,-2.0656,mol/L,147.13699999999994,0.3181,58.64,1.0,3.0
Clc1cc(Cl)cc(c1)c2ccccc2Cl,water,298,-6.2999,mol/L,257.547,5.313800000000002,0.0,0.0,0.0
ClC(Cl)C(=O)N(CC=C)CC=C,water,298,-1.6193,mol/L,208.08799999999997,1.9907,20.310000000000002,0.0,1.0
C[C@@H](CCl)[N+]([O-])=O,water,298,-1.1887,mol/L,123.53899999999999,0.8904000000000001,43.14,0.0,2.0
Brc1cc(Br)c(OCCOc2c(Br)cc(Br)cc2Br)c(Br)c1,water,298,-6.5363,mol/L,687.6400000000001,7.719400000000003,18.46,0.0,2.0
Clc1cc2Oc3c(Cl)c(Cl)c(Cl)c(Cl)c3Oc2c(Cl)c1Cl,water,298,-11.4795,mol/L,425.3090000000002,8.1584,18.46,0.0,2.0
COCCO[Si](CCCl)(OCCOC)OCCOC,water,298,-1.1029,mol/L,316.8540000000001,1.1531,55.38000000000001,0.0,6.0
Cc1cc(ccc1N[S](=O)(=O)C(F)(F)F)[S](=O)(=O)c2ccccc2,water,298,-3.8009,mol/L,379.38100000000003,3.0893200000000016,80.31,1.0,4.0
CCOC(=O)C1=CNC(=S)NC1=O,water,298,-2.0985,mol/L,200.219,0.6091899999999999,74.95,2.0,4.0
CC(C)C[C@H](N)C(=O)N[C@H](CCC(N)=O)C(O)=O,water,298,-1.5687,mol/L,259.306,-0.8052999999999981,135.51000000000002,4.0,4.0
CC(O)(CO)C(O)[C@@]12NC(=O)[C@@](O)(NC1=O)C(=C)CCO2,water,298,-0.1971,mol/L,302.28300000000013,-3.301999999999995,148.35,6.0,7.0
Cc1cc(C)c(OCC(O)=O)c(Br)c1,water,298,-3.1234,mol/L,259.099,2.5293400000000004,46.53,1.0,2.0
CCOc1cc(O[P](=S)(OC)OC)nc(CC)n1,water,298,-3.8638,mol/L,292.297,2.3338,62.7,0.0,7.0
NC1=CC(=NC(=N)N1O)N2CCCCC2,water,298,-1.9782,mol/L,209.25299999999993,0.17236999999999925,91.16,3.0,6.0
CC(C)(C)NC[C@@H](O)COc1ccccc1C2CCCC2,water,298,-1.6195,mol/L,291.4350000000001,3.472000000000002,41.489999999999995,2.0,3.0
Clc1ccc(Cl)c(c1Cl)c2cc(Cl)c(Cl)cc2Cl,water,298,-7.93,mol/L,360.88200000000006,7.274000000000001,0.0,0.0,0.0
Clc1ccc(c(Cl)c1Cl)c2c(Cl)ccc(Cl)c2Cl,water,298,-7.65,mol/L,360.88200000000006,7.274000000000001,0.0,0.0,0.0
Clc1ccc(cc1Cl)c2cc(Cl)c(Cl)c(Cl)c2Cl,water,298,-7.8306,mol/L,360.88200000000006,7.274,0.0,0.0,0.0
Clc1ccc(Cl)c(c1Cl)c2cc(Cl)c(Cl)c(Cl)c2Cl,water,298,-8.5901,mol/L,395.3270000000001,7.9274000000000004,0.0,0.0,0.0
Clc1cccc(c1)c2c(Cl)cccc2Cl,water,298,-6.8245,mol/L,257.547,5.313800000000001,0.0,0.0,0.0
Cc1ccc2c(ccc(O)c2n1)[N+]([O-])=O,water,298,-3.9598,mol/L,204.185,2.1570200000000006,76.25999999999999,1.0,4.0
CC([S](C)(=O)=O)[S](C)(=O)=O,water,298,-1.4188,mol/L,186.25399999999996,-0.5783999999999998,68.28,0.0,4.0
CC(C)(NC(N)=O)C(O)=O,water,298,-1.1648,mol/L,146.14600000000002,-0.48210000000000025,92.41999999999999,3.0,2.0
CCOc1ccccc1\C=C/C(O)=O,water,298,-2.5234,mol/L,192.21399999999997,2.1831,46.53,1.0,2.0