Solute,Solvent,Temperature_K,Solubility,Units,MW,LogP,TPSA,HBD,HBA
Clc1ccc(cc1)[S](=O)(=O)c2ccc(Cl)cc2,water,298,-5.52363608,mol/L,287.167,3.826200000000002,34.14,0.0,2.0
[O--].[O--].[O--].[Sb+3].[Sb+3],water,298,-5.531176598,mol/L,291.517,-1.118,85.5,0.0,0.0
[Ca++].CCCCCCC(O)CCCCCCCCCCC([O-])=O.CCCCCCC(O)CCCCCCCCCCC([O-])=O,water,298,-5.891176731,mol/L,639.0280000000001,7.55640000000001,120.72,2.0,6.0
[O--].[O--].[O--].[Sb+3].[Sb+3],water,298,-5.555107857,mol/L,291.517,-1.118,85.5,0.0,0.0
CC(C)CCC(C)Nc1ccc(NC(C)CCC(C)C)cc1,water,298,-5.575133655,mol/L,304.52200000000005,6.159800000000006,24.06,2.0,2.0
CC(C)CCCCCCCOP(OCCCCCCCC(C)C)Oc1ccccc1,water,298,-5.738468786,mol/L,438.6330000000002,9.3187,27.69,0.0,3.0
CC(CO)C1CCCCCCCCCCC1,water,298,-5.451794109,mol/L,226.4039999999999,4.535700000000005,20.23,1.0,1.0
CCCCC[C@H](CCC)CCCO,water,298,-5.367213774,mol/L,186.33899999999997,3.7555000000000027,20.23,1.0,1.0
[Cd]=[Te],water,298,-5.477142969,mol/L,240.012,-0.38330000000000003,0.0,0.0,0.0
Clc1c(Cl)c(Cl)c2C(=O)OC(=O)c2c1Cl,water,298,-5.553119611,mol/L,285.89699999999993,3.6107999999999993,43.370000000000005,0.0,3.0
COC(=O)CCCCCCCCC=C,water,298,-5.397515352,mol/L,198.30599999999995,3.4662000000000024,26.3,0.0,2.0
[Al+3].[Al+3].[O-]C(=O)c1c(Cl)c(Cl)c(Cl)c(Cl)c1C2=C3C=C(Br)C(=O)C(=C3Oc4c(Br)c([O-])c(Br)cc24)Br.[O-]C(=O)c5c(Cl)c(Cl)c(Cl)c(Cl)c5C6=C7C=C(Br)C(=O)C(=C7Oc8c(Br)c([O-])c(Br)cc68)Br.[O-]C(=O)c9c(Cl)c(Cl)c(Cl)c(Cl)c9C%10=C%11C=C(Br)C(=O)C(=C%11Oc%12c(Br)c([O-])c(Br)cc%10%12)Br,water,298,-6.490069011,mol/L,2404.9409999999984,22.234900000000014,280.2,0.0,15.0
[O--].[O--].[O--].[Bi+3].[Bi+3],water,298,-5.777924822,mol/L,465.957,-1.118,85.5,0.0,0.0
C[C@]12CC[C@H]3[C@@H](CCc4cc(O)ccc34)[C@@H]1CCC2=O,water,298,-5.551148121,mol/L,270.372,3.817400000000003,37.3,1.0,2.0
Cc1cc(c(O)c(c1)C(C)(C)C)C(C)(C)C,water,298,-5.462311288,mol/L,220.35599999999997,4.295620000000003,20.23,1.0,1.0
FC(F)(F)C(F)(F)C(F)(F)C(F)(F)C(F)(F)C(F)(F)CCOC(=O)C=C.FC(F)(F)C(F)(F)C(F)(F)C(F)(F)C(F)(F)C(F)(F)C(F)(F)C(F)(F)CCOC(=O)C=C.FC(F)(F)C(F)(F)C(F)(F)C(F)(F)C(F)(F)C(F)(F)C(F)(F)C(F)(F)C(F)(F)C(F)(F)CCOC(=O)C=C.FC(F)(F)C(F)(F)C(F)(F)C(F)(F)C(F)(F)C(F)(F)C(F)(F)C(F)(F)C(F)(F)C(F)(F)C(F)(F)C(F)(F)CCOC(=O)C=C,water,298,-6.481477027,mol/L,2272.680000000001,27.00160000000004,105.20000000000002,0.0,8.0
CCC(C)c1cc(C(C)CC)c(O)c(c1)C(C)CC,water,298,-5.549793345,mol/L,262.43699999999995,5.932700000000007,20.23,1.0,1.0
Cc1cc(Cc2cc(C)cc(C3CCCCC3)c2O)c(O)c(c1)C4CCCCC4,water,298,-5.736598993,mol/L,392.5830000000002,7.400840000000007,40.46,2.0,2.0
N(c1ccccc1)c2ccc3ccccc3c2,water,298,-5.495914846,mol/L,219.287,4.583400000000003,12.03,1.0,1.0
[Gd+3].[Gd+3].[O-]C(=O)C([O-])=O.[O-]C(=O)C([O-])=O.[O-]C(=O)C([O-])=O,water,298,-5.917245861,mol/L,578.5540000000003,-10.5414,240.77999999999997,0.0,12.0
O=[Y],water,298,-5.175698148,mol/L,104.905,-0.1213,17.07,0.0,1.0
[O--].[O--].[O--].[Y+3].[Y+3],water,298,-5.508643208,mol/L,225.80900000000003,-0.3614,85.5,0.0,0.0
CC(CCCC(C)C=O)CCC=C(C)C,water,298,-5.496890424,mol/L,210.36099999999996,4.3742000000000045,17.07,0.0,1.0
CC(C)CCC(C)Nc1ccc(Nc2ccccc2)cc1,water,298,-5.624837561,mol/L,282.43100000000004,5.666800000000005,24.06,2.0,2.0
O=C1CCCCCCCCCC\C=C/CCC1,water,298,-5.560732278,mol/L,236.39899999999994,5.196600000000005,17.07,0.0,1.0
COC1=CCC2=C(CCC3C2CCC4(C)C3CCC4(O)C#N)C1,water,298,-5.683242448,mol/L,313.44100000000003,4.098080000000003,53.25,1.0,3.0
CC1(C)CCCC2(C)C1CCC34COC(C)(CCC23)O4,water,298,-5.645384837,mol/L,278.4359999999999,4.524600000000004,18.46,0.0,2.0
CC1CCC(CC1)C(C)C,water,298,-5.354573108,mol/L,140.26999999999998,3.468700000000003,0.0,0.0,0.0
[Ba++].Cc1cc(N\N=C\2C(=O)C=Cc3ccccc23)c(cc1Cl)[S]([O-])(=O)=O.Cc4cc(N\N=C\5C(=O)C=Cc6ccccc56)c(cc4Cl)[S]([O-])(=O)=O,water,298,-6.156487599,mol/L,888.954,5.548440000000005,197.32,2.0,12.0
C,water,298,-4.422812959,mol/L,16.043,0.6361,0.0,0.0,0.0
CC(C)c1ccc(cc1)c2ccccc2,water,298,-5.514753562,mol/L,196.29299999999998,4.477000000000004,0.0,0.0,0.0
CCCCCC(C)OC(=O)COc1ccc(Cl)c2cccnc12,water,298,-5.747969532,mol/L,335.8310000000001,4.779000000000004,48.42,0.0,4.0
Cc1cc(c(O)c(c1)C(C)(C)C)C(C)(C)C,water,298,-5.56497363,mol/L,220.35599999999997,4.295620000000003,20.23,1.0,1.0
CCCCCCCCCCCCCCCCCCN(CCO)CCO,water,298,-5.775274192,mol/L,357.62300000000005,5.534500000000007,43.7,2.0,3.0
[Gd+3].[Gd+3].[O-]C(=O)C([O-])=O.[O-]C(=O)C([O-])=O.[O-]C(=O)C([O-])=O,water,298,-5.98419265,mol/L,578.5540000000003,-10.5414,240.77999999999997,0.0,12.0
CCCCC(CC)CO[P](=O)(OCC(CC)CCCC)OCC(CC)CCCC,water,298,-5.85998044,mol/L,434.6420000000004,8.793500000000003,44.760000000000005,0.0,4.0
CCCCCCCCCCCCCCCCCC(O)=O,water,298,-5.678083515,mol/L,284.4839999999999,6.332500000000007,37.3,1.0,1.0
O=C1CCCCCCC\C=C/CCCCCCO1,water,298,-5.629397555,mol/L,252.39799999999994,4.780600000000004,26.3,0.0,2.0
CCCCCC(C)OC(=O)COc1ccc(Cl)c2cccnc12,water,298,-5.755268771,mol/L,335.8310000000001,4.779000000000004,48.42,0.0,4.0
CC1CC(C)(C)CC(C1)(OOC(C)(C)C)OOC(C)(C)C,water,298,-5.724785913,mol/L,302.45500000000004,5.022300000000005,36.92,0.0,4.0
COC(=O)c1ccc(NC(=O)c2cc(Cl)ccc2Cl)cc1N,water,298,-5.790064986,mol/L,339.17800000000005,3.6145000000000014,81.42,2.0,4.0
CCCCCC(C)OC(=O)COc1ccc(Cl)c2cccnc12,water,298,-5.793727023,mol/L,335.8310000000001,4.779000000000004,48.42,0.0,4.0
CCCCCCCC(=O)SCCC[Si](OCC)(OCC)OCC,water,298,-5.832680461,mol/L,364.6240000000002,5.045200000000005,44.760000000000005,0.0,5.0
O=C(OCCc1ccccc1)/C=C/c2ccccc2,water,298,-5.683437939,mol/L,252.31300000000002,3.4857000000000022,26.3,0.0,2.0
Oc1c(cccc1c2ccccc2)c3ccccc3,water,298,-5.683910105,mol/L,246.30900000000003,4.726200000000004,20.23,1.0,1.0
CC1(C)CC\C(=C/c2ccc(Cl)cc2)C1=O,water,298,-5.671591194,mol/L,234.726,4.112500000000003,17.07,0.0,1.0
CC(C)(C)c1cc(ccc1O)C(C)(CC(=O)OCCOC(=O)CC(C)(c2ccc(O)c(c2)C(C)(C)C)c3ccc(O)c(c3)C(C)(C)C)c4ccc(O)c(c4)C(C)(C)C,water,298,-6.201435362,mol/L,795.07,10.877799999999992,133.52,4.0,8.0
[O--].[O--].[O--].[Gd+3].[Gd+3],water,298,-5.860334412,mol/L,362.497,-0.3564,85.5,0.0,0.0
[F-].[F-].[F-].[Nd+3],water,298,-5.617959621,mol/L,201.234,-8.988,0.0,0.0,0.0
CC(C)c1ccc(cc1)c2ccccc2,water,298,-5.609857774,mol/L,196.29299999999998,4.477000000000004,0.0,0.0,0.0
[Ca++].CCCCCCC(O)CCCCCCCCCCC([O-])=O.CCCCCCC(O)CCCCCCCCCCC([O-])=O,water,298,-6.124278651,mol/L,639.0280000000001,7.55640000000001,120.72,2.0,6.0
C1CCC(CC1)NSc2sc3ccccc3n2,water,298,-5.741051421,mol/L,264.41900000000004,4.225700000000003,24.92,1.0,4.0
CCCCCC(C)OC(=O)COc1ccc(Cl)c2cccnc12,water,298,-5.854022925,mol/L,335.8310000000001,4.779000000000004,48.42,0.0,4.0
CCc1cc(Cc2cc(CC)c(N)c(CC)c2)cc(CC)c1N,water,298,-5.848587947,mol/L,310.48500000000007,4.691400000000003,52.04,2.0,2.0
C,water,298,-4.571817128,mol/L,16.043,0.6361,0.0,0.0,0.0
CC(C)(OOC(C)(C)c1ccccc1)c2ccccc2,water,298,-5.798493258,mol/L,270.372,4.805200000000005,18.46,0.0,2.0
CC(C)(c1ccc(OCCOC(=O)C=C)cc1)c2ccc(OCCOC(=O)C=C)cc2,water,298,-5.999481603,mol/L,424.4930000000002,4.228500000000004,71.06,0.0,6.0
[Ca++].CCCCCCC(O)CCCCCCCCCCC([O-])=O.CCCCCCC(O)CCCCCCCCCCC([O-])=O,water,298,-6.187471791,mol/L,639.0280000000001,7.55640000000001,120.72,2.0,6.0
CC(c1ccccc1)c2ccc(Nc3ccc(cc3)C(C)c4ccccc4)cc2,water,298,-5.964168762,mol/L,377.53100000000006,7.733800000000007,12.03,1.0,1.0
CCCCCCCCCCCCCCCCCCCCCCCCCCCCCCCCCCCCCCCCCCCCCCCCCCCCCCCCCCCCCCCCCCCCCCCCCC.CCCCCCCCCCCCCCCCCCCCCCCCCCCCCCCCCCCCC(CCCC)(CCCC)CCCCCCCCCCCCCCCC(CCCC)(CCCC)CCCCC.CCCc1cc(C)cc(C)c1.c2ccc(cc2)c3ccccc3.c4ccc5cc6ccccc6cc5c4,water,298,-6.806302611,mol/L,2560.7229999999945,68.54113999999966,0.0,0.0,0.0
CCCCCCCCCCCCCCCCCCCCCCCCCCCCCC.CCCCCCCCCCCC(CC)CCCCCCC(CC)CCCCCCC.CCC1CCC(CC)CC1.Cc2cccc(C)c2.C3CCC4CC5CCCCC5CC4C3.c6ccc7ccccc7c6.c8ccc9cc%10ccccc%10cc9c8,water,298,-6.599567603,mol/L,1590.843999999999,40.751839999999945,0.0,0.0,0.0
Cc1cc(c(O)c(c1)C(C)(C)C)C(C)(C)C,water,298,-5.741064889,mol/L,220.35599999999997,4.295620000000003,20.23,1.0,1.0
CCCCCCCCCCCCCCCCCCCCCCC.CCCCCCCCCCCC(CCC)(CCC)CCCCCCCC.CCc1ccc2cc3cc(CC)ccc3cc2c1,water,298,-6.364408865,mol/L,925.6969999999994,24.580600000000036,0.0,0.0,0.0
CCCCC(CC)COC(=O)c1ccccc1,water,298,-5.767784581,mol/L,234.339,4.059800000000004,26.3,0.0,2.0
CC1CC(CC(C)(C)C1)OC(=O)c2ccccc2O,water,298,-5.816819422,mol/L,262.349,3.763800000000004,46.53,1.0,3.0
CCCCCCCCCCCCCCCCCCCC.CCCCCCCC(CC)CCCC(CC)CCCC.c1ccc2cc3ccccc3cc2c1,water,298,-6.269131018,mol/L,743.3460000000002,19.800799999999988,0.0,0.0,0.0
CCCCCCCCCCCCCC.CCc1ccccc1.c2ccccc2.c3ccc4ccccc4c3.c5ccc6cc7ccccc7cc6c5,water,298,-6.236212175,mol/L,689.0840000000001,16.475799999999964,0.0,0.0,0.0
COC(=O)c1ccc(cc1[N+]([O-])=O)C(=O)Nc2cc(Cl)ccc2Cl,water,298,-5.965154646,mol/L,369.1600000000001,3.940500000000002,98.53999999999999,1.0,5.0
c1ccc2ccccc2c1,water,298,-5.505739947,mol/L,128.17399999999995,2.839800000000001,0.0,0.0,0.0
C\C=C(/C)C(=O)OCCC(C)CCC=C(C)C,water,298,-5.791792689,mol/L,238.37099999999995,4.268400000000004,26.3,0.0,2.0
CC(=C)C(=O)OCCC(F)(F)C(F)(F)C(F)(F)C(F)(F)C(F)(F)C(F)(F)F,water,298,-6.058168846,mol/L,432.17599999999993,5.234600000000002,26.3,0.0,2.0
CC(C)c1ccc(O[P](=O)(Oc2ccc(cc2)C(C)C)Oc3ccc(cc3)C(C)C)cc1,water,298,-6.090982271,mol/L,452.5310000000002,8.701700000000004,44.760000000000005,0.0,4.0
O=C1C=CC(=O)N1c2ccc(Cc3ccc(cc3)N4C(=O)C=CC4=O)cc2,water,298,-5.998008544,mol/L,358.3530000000001,2.1361999999999997,74.76,0.0,4.0
O=C(OOC(=O)c1ccccc1)c2ccccc2,water,298,-5.840159885,mol/L,242.23000000000002,2.615400000000001,52.6,0.0,4.0
CCCCCCCCCCCCCCO,water,298,-5.787142557,mol/L,214.39299999999994,4.679800000000005,20.23,1.0,1.0
CCCCC(CC)COC(=O)c1ccccc1C(=O)OCC(CC)CCCC,water,298,-6.060213293,mol/L,390.5640000000003,6.433000000000007,52.60000000000001,0.0,4.0
CC(C)c1ccc(O[P](=O)(Oc2ccc(cc2)C(C)C)Oc3ccc(cc3)C(C)C)cc1,water,298,-6.137134395,mol/L,452.5310000000002,8.701700000000004,44.760000000000005,0.0,4.0
CCCCCCCC[Sn](Cl)(Cl)Cl,water,298,-6.010780355,mol/L,338.294,5.002200000000004,0.0,0.0,0.0
C1CCC(CC1)NSc2sc3ccccc3n2,water,298,-5.91714268,mol/L,264.41900000000004,4.225700000000003,24.92,1.0,4.0
[Cu],water,298,-5.29793824,mol/L,63.546,-0.0025,0.0,0.0,0.0
CCCCCCCCCCCCCCO,water,298,-5.839848908,mol/L,214.39299999999994,4.679800000000005,20.23,1.0,1.0
CCCCCCCCCCCCCCCc1cccc(O)c1.CCCCCCC\C=C/CCCCCCc2cccc(O)c2.CCCC/C=C\C\C=C/CCCCCCc3cccc(O)c3.Oc4cccc(CCCCCC\C=C/C/C=C\CCC=C)c4,water,298,-6.597038826,mol/L,1205.976,26.759600000000063,80.92,4.0,4.0
CCOc1ccccc1NC(=O)C(=O)Nc2ccccc2CC,water,298,-6.017546673,mol/L,312.3690000000001,3.2249000000000017,67.42999999999999,2.0,3.0
[CaH2].O=[Zr],water,298,-5.696988001,mol/L,149.317,-1.0375,17.07,0.0,1.0
O=C1CCCCCCCCCCCCCCO1,water,298,-5.903789723,mol/L,240.38699999999992,4.614500000000004,26.3,0.0,2.0
Cc1ccc2oc(\C=C\c3oc4ccc(C)cc4n3)nc2c1,water,298,-6.000481949,mol/L,290.322,4.756240000000004,52.06,0.0,4.0
CC[Pb](CC)(CC)CC,water,298,-6.047406472,mol/L,323.44800000000015,3.514800000000003,0.0,0.0,0.0
CC(C)c1ccc(cc1)c2ccccc2,water,298,-5.845746781,mol/L,196.29299999999998,4.477000000000004,0.0,0.0,0.0
C\1C\C=C/CC\C=C/CC/C=C1,water,298,-5.763096263,mol/L,162.276,4.009200000000003,0.0,0.0,0.0
[Al+3].[O-]N(N=O)c1ccccc1.[O-]N(N=O)c2ccccc2.[O-]N(N=O)c3ccccc3,water,298,-6.194649109,mol/L,438.3360000000001,4.635800000000003,167.19,0.0,9.0
C[C@]12CCC(=O)C=C1CC[C@@H]3[C@@H]2CC[C@@]4(C)[C@H]3CC[C@@]4(O)C#C,water,298,-6.05230493,mol/L,312.45300000000003,3.8826000000000027,37.3,1.0,2.0
O[S](O)(=O)=O.O=[Ti],water,298,-5.771616981,mol/L,161.94499999999996,-0.7740999999999998,91.66999999999999,2.0,3.0
Cc1ccc(O[P](=O)(Oc2ccc(C)cc2)Oc3ccc(C)cc3)cc1,water,298,-6.133313784,mol/L,368.3690000000001,6.256760000000005,44.760000000000005,0.0,4.0
[Cu],water,298,-5.371724454,mol/L,63.546,-0.0025,0.0,0.0,0.0
CCN(CC)c1ccc(cc1)N=Nc2ccccc2,water,298,-5.982115268,mol/L,253.34900000000002,4.948200000000004,27.96,0.0,3.0
[F-].[F-].[F-].[Nd+3],water,298,-5.893768237,mol/L,201.234,-8.988,0.0,0.0,0.0
CCc1ccc2C(=O)c3ccccc3C(=O)c2c1,water,298,-5.984242497,mol/L,236.26999999999998,3.0244000000000018,34.14,0.0,2.0
CCCCCCCCCCCCCCCCCC(O)=O,water,298,-6.073846604,mol/L,284.4839999999999,6.332500000000007,37.3,1.0,1.0
C1CCC(CC1)NSc2sc3ccccc3n2,water,298,-6.042081417,mol/L,264.41900000000004,4.225700000000003,24.92,1.0,4.0
CC(C)(CC(=C)c1ccccc1)c2ccccc2,water,298,-6.01184247,mol/L,236.35800000000003,5.067700000000004,0.0,0.0,0.0
CCCCc1nc(Cl)c(CO)n1Cc2ccc(cc2)c3ccccc3c4nnn(n4)C(c5ccccc5)(c6ccccc6)c7ccccc7,water,298,-6.461251172,mol/L,665.2410000000002,8.580400000000006,81.65,1.0,7.0
[O--].[O--].[O--].[Na+].[Na+].[Ti+4],water,298,-5.805457995,mol/L,141.844,-6.3509,85.5,0.0,0.0
CCCC[C@H](CC)COC(=O)/C=C/c1ccc(OC)cc1.CCCC[C@@H](CC)COC(=O)/C=C/c2ccc(OC)cc2,water,298,-6.421608413,mol/L,580.8060000000004,8.936000000000005,71.06,0.0,6.0
COC(=O)c1ccc(C(=O)OC)c(c1)N=NC(C(C)=O)C(=O)Nc2ccc3NC(=O)Nc3c2,water,298,-6.314069371,mol/L,453.4110000000002,2.1093999999999995,172.14,3.0,9.0
CCCCCCCCCCC1CO1,water,298,-5.92315685,mol/L,184.32299999999998,3.916000000000003,12.53,0.0,1.0
CCCCCCCCCCCCC1CO1,water,298,-5.984684801,mol/L,212.37699999999995,4.696200000000004,12.53,0.0,1.0
C1COC2(C1)CC3CC2C4CCCC34,water,298,-5.94156112,mol/L,192.30199999999996,2.9917000000000016,9.23,0.0,1.0
C[Si](C)(O[Si](C)(C)C=C)C=C,water,298,-5.954482552,mol/L,186.40299999999996,2.863600000000001,9.23,0.0,1.0
CC(C)C(c1cc(C)cc(C)c1O)c2cc(C)cc(C)c2O,water,298,-6.16734062,mol/L,298.426,5.119380000000006,40.46,2.0,2.0
[CaH2].O=[Zr],water,298,-5.87307926,mol/L,149.317,-1.0375,17.07,0.0,1.0
COC(=O)c1cc(cc(c1)C(=O)OC)N=NC(C(C)=O)C(=O)Nc2ccc3NC(=O)Nc3c2,water,298,-6.377738451,mol/L,453.4110000000002,2.1093999999999995,172.14,3.0,9.0
COc1ccc(cc1O)C2=CC(=O)c3c(O)cc(O)cc3O2,water,298,-6.198752558,mol/L,300.266,2.5854,100.13000000000001,3.0,6.0
OC(=O)CCCCCNc1nc(NCCCCCC(O)=O)nc(NCCCCCC(O)=O)n1,water,298,-6.392006976,mol/L,468.5550000000003,3.0423,186.65999999999997,6.0,9.0
OCCN(CCO)CCO.OCCN(CCO)CCO.OCCN(CCO)CCO.OC(=O)CCCCCNc1nc(NCCCCCC(O)=O)nc(NCCCCCC(O)=O)n1,water,298,-6.683201134,mol/L,916.1249999999993,-2.161800000000005,378.44999999999993,15.0,21.0
FC(F)(F)C(F)(F)C(F)(F)C(F)(F)C(F)(F)C(F)(F)CCOC(=O)C=C,water,298,-6.354159334,mol/L,418.14900000000017,4.844500000000002,26.3,0.0,2.0
CC(C)CCCCCCCOP(OCCCCCCCC(C)C)Oc1ccccc1,water,298,-6.382029914,mol/L,438.6330000000002,9.3187,27.69,0.0,3.0
[Zr+4].[Zr+4].[Zr+4].[O-][P]([O-])([O-])=O.[O-][P]([O-])([O-])=O.[O-][P]([O-])([O-])=O.[O-][P]([O-])([O-])=O,water,298,-6.560007643,mol/L,653.5520000000004,-11.305900000000001,345.0,0.0,16.0
O[S](O)(=O)=O.O=[Ti],water,298,-5.961394278,mol/L,161.94499999999996,-0.7740999999999998,91.66999999999999,2.0,3.0
Cc1ccc(O)c(c1)n2nc3ccccc3n2,water,298,-6.114620625,mol/L,225.251,2.43452,50.94,1.0,4.0
O=C1c2ccccc2C(=O)c3ccccc13,water,298,-6.088065178,mol/L,208.21599999999998,2.4620000000000006,34.14,0.0,2.0
Cc1ccc2C(=O)c3ccccc3C(=O)c2c1,water,298,-6.117146249,mol/L,222.243,2.7704200000000014,34.14,0.0,2.0
O=C1C(c2ccc3ccccc3n2)C(=O)c4ccccc14,water,298,-6.208738625,mol/L,273.291,3.3976000000000015,47.03,0.0,3.0
Oc1ccc(O)c2C(=O)c3ccccc3C(=O)c12,water,298,-6.160490227,mol/L,240.214,1.8731999999999998,74.6,2.0,4.0
Oc1ccc(O)c2C(=O)c3ccccc3C(=O)c12,water,298,-6.176478332,mol/L,240.214,1.8731999999999998,74.6,2.0,4.0
O[S](O)(=O)=O.O=[Ti],water,298,-6.00797042,mol/L,161.94499999999996,-0.7740999999999998,91.66999999999999,2.0,3.0
CCCCC(CC)COC(=O)c1ccccc1C(=O)OCC(CC)CCCC,water,298,-6.397177868,mol/L,390.5640000000003,6.433000000000007,52.60000000000001,0.0,4.0
Oc1ccc(O)c2C(=O)c3ccccc3C(=O)c12,water,298,-6.190266617,mol/L,240.214,1.8731999999999998,74.6,2.0,4.0
N(c1ccccc1)c2ccc(Nc3ccccc3)cc2,water,298,-6.239449642,mol/L,260.34000000000003,5.1738000000000035,24.06,2.0,2.0
COC(=O)c1ccc2cc(ccc2c1)C(=O)OC,water,298,-6.211736201,mol/L,244.24599999999998,2.4130000000000003,52.60000000000001,0.0,4.0
[Ca++].CCCCCCC(O)CCCCCCCCCCC([O-])=O.CCCCCCC(O)CCCCCCCCCCC([O-])=O,water,298,-6.629428629,mol/L,639.0280000000001,7.55640000000001,120.72,2.0,6.0
CC(C)(c1cc(Br)c(O)c(Br)c1)c2cc(Br)c(O)c(Br)c2,water,298,-6.565237381,mol/L,543.875,6.4737000000000045,40.46,2.0,2.0
CC(C)c1ccc2ccccc2c1C(C)C,water,298,-6.16866114,mol/L,212.33599999999996,5.086600000000004,0.0,0.0,0.0
[Al+3].[Al+3].[O-]C(=O)c1ccccc1C2=C3C=C(Br)C(=O)C(=C3Oc4c(Br)c([O-])c(Br)cc24)Br.[O-]C(=O)c5ccccc5C6=C7C=C(Br)C(=O)C(=C7Oc8c(Br)c([O-])c(Br)cc68)Br.[O-]C(=O)c9ccccc9C%10=C%11C=C(Br)C(=O)C(=C%11Oc%12c(Br)c([O-])c(Br)cc%10%12)Br,water,298,-7.143562702,mol/L,1991.6009999999997,14.394099999999991,280.2,0.0,15.0
Oc1ccc(O)c2C(=O)c3ccccc3C(=O)c12,water,298,-6.253493517,mol/L,240.214,1.8731999999999998,74.6,2.0,4.0
[O--].[O--].[Mg++].[Ca++],water,298,-5.863417497,mol/L,96.381,-0.9992000000000001,57.0,0.0,0.0
[Cu],water,298,-5.689144866,mol/L,63.546,-0.0025,0.0,0.0,0.0
CCCCC(CC)CO[P](=O)(OCC(CC)CCCC)OCC(CC)CCCC,water,298,-6.524188338,mol/L,434.6420000000004,8.793500000000003,44.760000000000005,0.0,4.0
CC(C)c1ccc2ccccc2c1C(C)C,water,298,-6.230113619,mol/L,212.33599999999996,5.086600000000004,0.0,0.0,0.0
CCCCCCCCCCCCCCCCN(C)C,water,298,-6.333676151,mol/L,269.51699999999994,6.029300000000006,3.24,0.0,1.0
CC(C)(c1cc(Br)c(O)c(Br)c1)c2cc(Br)c(O)c(Br)c2,water,298,-6.642077411,mol/L,543.875,6.4737000000000045,40.46,2.0,2.0
[Cu+].[S-]C#N,water,298,-6.005863031,mol/L,121.631,0.01188,23.79,0.0,2.0
CCCCCCCC[Sn](=O)CCCCCCCC,water,298,-6.478515993,mol/L,361.1580000000003,6.129400000000007,17.07,0.0,1.0
CCCCCCCCCCCCCCCCO,water,298,-6.305435569,mol/L,242.44699999999992,5.460000000000006,20.23,1.0,1.0
Oc1ccc(O)c2C(=O)c3ccccc3C(=O)c12,water,298,-6.319900475,mol/L,240.214,1.8731999999999998,74.6,2.0,4.0
COc1ccc(cc1)N2CCN(CC2)c3ccc(cc3)N4C=NNC4=O,water,298,-6.488909265,mol/L,351.40999999999997,1.8957999999999997,66.39,1.0,6.0
Clc1ccc(NC(=O)Nc2ccc(Cl)c(Cl)c2)cc1,water,298,-6.45772642,mol/L,315.587,5.290800000000002,41.13,2.0,1.0
CNc1cccc2C(=O)c3ccccc3C(=O)c12,water,298,-6.33382818,mol/L,237.25799999999998,2.5037000000000003,46.17,1.0,3.0
CC1CC(C)(C)CC(C1)(OOC(C)(C)C)OOC(C)(C)C,water,298,-6.480660768,mol/L,302.45500000000004,5.022300000000005,36.92,0.0,4.0
[O--].[O--].[O--].[Gd+3].[Gd+3],water,298,-6.559304417,mol/L,362.497,-0.3564,85.5,0.0,0.0
Oc1ccc(O)c2C(=O)c3ccccc3C(=O)c12,water,298,-6.397874927,mol/L,240.214,1.8731999999999998,74.6,2.0,4.0
Oc1ccc(O)c2C(=O)c3ccccc3C(=O)c12,water,298,-6.398327082,mol/L,240.214,1.8731999999999998,74.6,2.0,4.0
C\C1=C/CCC(=C)[C@H]2CC(C)(C)[C@@H]2CC1,water,298,-6.337261665,mol/L,204.35699999999997,4.7252000000000045,0.0,0.0,0.0
c1ccc(cc1)P(c2ccccc2)c3ccccc3,water,298,-6.464542535,mol/L,262.29200000000003,3.4448000000000016,0.0,0.0,0.0
C\C1=C/CCC(=C)[C@H]2CC(C)(C)[C@@H]2CC1,water,298,-6.365906846,mol/L,204.35699999999997,4.7252000000000045,0.0,0.0,0.0
CCC(C)(C)OOC1(CCCCC1)OOC(C)(C)CC,water,298,-6.515554746,mol/L,288.428,4.920400000000005,36.92,0.0,4.0
CC(C)(c1ccccc1)C(C)(C)c2ccccc2,water,298,-6.474168897,mol/L,238.37399999999997,4.942000000000005,0.0,0.0,0.0
C1CC=CC(C1)c2ccc(cc2)C3CCC=CC3,water,298,-6.474168897,mol/L,238.37399999999997,5.334000000000004,0.0,0.0,0.0
C(Oc1ccc2ccccc2c1)c3ccccc3,water,298,-6.477673979,mol/L,234.298,4.418800000000003,9.23,0.0,1.0
CN1C(=O)C=C2c3ccccc3C(=O)c4c(Br)ccc1c24,water,298,-6.680445321,mol/L,340.17600000000004,3.512400000000002,39.07,0.0,3.0
Oc1cc2ccccc2cc1C(=O)Nc3cccc(c3)[N+]([O-])=O,water,298,-6.643865624,mol/L,308.293,3.7059000000000015,92.47,2.0,4.0
C[Si]1(C)O[Si](C)(C)O[Si](C)(C)O[Si](C)(C)O1,water,298,-6.627102391,mol/L,296.62,2.8736000000000015,36.92,0.0,4.0
[O--].[O--].[O--].[La+3].[La+3],water,298,-6.670353837,mol/L,325.809,-0.3564,85.5,0.0,0.0
[O-][N+](=O)c1cc(OC(=O)Oc2cc(c(Cl)cc2Cl)[N+]([O-])=O)c(Cl)cc1Cl,water,298,-6.812907461,mol/L,441.99400000000014,5.694400000000001,121.81,0.0,7.0
CC(C)(C)c1cc(c(O)c(c1)C(C)(C)C)C(C)(C)C,water,298,-6.619684515,mol/L,262.43699999999995,5.284700000000005,20.23,1.0,1.0
C1CC=CC(C1)c2ccc(cc2)C3CCC=CC3,water,298,-6.591929049,mol/L,238.37399999999997,5.334000000000004,0.0,0.0,0.0
CCCCOC(=O)c1ccc(cc1)C(=O)OCCCC,water,298,-6.666436855,mol/L,278.348,3.600400000000003,52.60000000000001,0.0,4.0
CCCCCCCC\C=C/CCCCCCCCO.O[P](O)(O)=O,water,298,-6.785897843,mol/L,366.4789999999999,5.087600000000009,97.99000000000001,4.0,2.0