Solute,Solvent,Temperature_K,Solubility,Units,MW,LogP,TPSA,HBD,HBA
CC(C)N(C(C)C)C(=O)SC\C(Cl)=C\Cl,water,298,-4.2856,mol/L,270.225,4.277400000000004,20.310000000000002,0.0,2.0
CC(C)N(C(C)C)C(=O)SCC(Cl)=C(Cl)Cl,water,298,-4.8818,mol/L,304.66999999999996,4.843900000000003,20.310000000000002,0.0,2.0
OC(=O)C1CCCCC1C(O)=O,water,298,-1.935,mol/L,172.18,0.9620000000000002,74.6,2.0,2.0
O=C1Nc2nc[nH]c2C=N1,water,298,-1.7136,mol/L,136.11399999999998,-0.35380000000000006,74.43,2.0,3.0
CN1C(=O)N(C)C2=C(N(C)C(=O)N2C)C1=O,water,298,-0.9527,mol/L,224.21999999999997,-1.725599999999999,70.93,0.0,7.0
CCO[P](=S)(OCC)SCN1C(=O)Oc2cc(Cl)ccc12,water,298,-5.0813,mol/L,367.8160000000001,4.236100000000003,53.6,0.0,7.0
CCCCOC(=O)C1(O)c2ccccc2c3ccccc13,water,298,-3.8885,mol/L,282.33900000000006,3.2462000000000018,46.53,1.0,3.0
CCN(CC)C(=O)CCl,water,298,-0.243,mol/L,149.62099999999998,1.0936,20.310000000000002,0.0,1.0
CCCOC(=O)c1ccccc1,water,298,-2.6701,mol/L,164.20399999999998,2.2534,26.3,0.0,2.0
OCc1cc(Br)ccc1O,water,298,-0.2072,mol/L,203.035,1.647,40.46,2.0,2.0
CC(C)C(CC(O)=O)C(O)=O,water,298,-0.4073,mol/L,160.16899999999998,0.8179000000000001,74.6,2.0,2.0
CCOC(=O)[C@H](Cc1ccccc1)NC(C)=O,water,298,-1.7557,mol/L,235.28300000000002,1.2969,55.4,1.0,3.0
Fc1cc(F)c(F)c(F)c1,water,298,-2.3057,mol/L,150.074,2.2430000000000003,0.0,0.0,0.0
CCCC(C)(C)CO,water,298,-1.4391,mol/L,116.20399999999998,1.8050000000000002,20.23,1.0,1.0
OC(=O)\C=C/c1ccc2OCOc2c1,water,298,-3.8523,mol/L,192.16999999999996,1.5131000000000001,55.760000000000005,1.0,3.0
CCC1(CC=C)C(=O)NC(=O)NC1=O,water,298,-1.6885,mol/L,196.206,0.3249000000000001,75.27000000000001,2.0,3.0
Cc1ccc2cc3ccc4ccccc4c3cc2c1,water,298,-6.644,mol/L,242.321,5.454620000000004,0.0,0.0,0.0
Cc1ccc2cc3c(ccc4ccccc34)cc2c1,water,298,-6.8162,mol/L,242.321,5.454620000000004,0.0,0.0,0.0
Cc1c2ccccc2c3ccc4cccc5ccc1c3c45,water,298,-8.5234,mol/L,266.343,6.045620000000003,0.0,0.0,0.0
S=C1Nc2ccccc2O1,water,298,-2.1795,mol/L,151.18999999999997,2.4903900000000005,28.93,1.0,2.0
ClC1(Cl)C2(Cl)C3(Cl)C4(Cl)C(Cl)(Cl)C5(Cl)C3(Cl)C1(Cl)C5(Cl)C24Cl,water,298,-6.8074,mol/L,545.5460000000003,6.222999999999999,0.0,0.0,0.0
Clc1cccc(c1)N=C=S,water,298,-3.9507,mol/L,169.636,3.074300000000001,12.36,0.0,2.0
C#CCCCCCC#C,water,298,-2.983,mol/L,120.195,2.2033000000000005,0.0,0.0,0.0
OC(=O)C1=C[NH++]([O-])[CH-]C=C1,water,298,-1.2983,mol/L,,,,,
CCCCO[P](=O)(CC)OCCCC,water,298,-1.5687,mol/L,222.26499999999993,3.8328000000000033,35.53,0.0,3.0
CCCCO[P](C)(=O)OCCCC,water,298,-1.4155,mol/L,208.23799999999994,3.442700000000002,35.53,0.0,3.0
Oc1ccccc1Oc2ccccc2,water,298,-3.2286,mol/L,186.21,3.1845000000000017,29.46,1.0,2.0
CCC(O)CN(CC(O)CC)CC(O)CC,water,298,-0.5229,mol/L,233.35199999999998,0.6010999999999993,63.93000000000001,3.0,4.0
Cc1c2ccccc2cc3ccc4ccccc4c13,water,298,-6.5648,mol/L,242.321,5.454620000000004,0.0,0.0,0.0
ClC(Cl)C(Cl)(Cl)SN1C(=O)C2CC=CCC2C1=O,water,298,-5.3968,mol/L,349.06600000000014,3.520900000000001,37.38,0.0,3.0
CCCCOCC1CO1,water,298,-0.8135,mol/L,130.18699999999998,1.2019,21.759999999999998,0.0,2.0
Cc1cc(Cl)c(O)c(Cl)c1,water,298,-1.4202,mol/L,177.03,3.0074200000000006,20.23,1.0,1.0
Cc1ncc2nccnc2n1,water,298,-0.1191,mol/L,146.153,0.7282199999999999,51.56,0.0,4.0
Cc1ncnc2nccnc12,water,298,-0.4658,mol/L,146.15299999999996,0.7282199999999999,51.56,0.0,4.0
NCCCCCCCCCCC(O)=O,water,298,-2.3039,mol/L,201.30999999999997,2.5406000000000004,63.32,2.0,2.0
Cc1ccc2nc3SC(=O)Sc3nc2c1,water,298,-5.3698,mol/L,234.305,2.5746200000000004,42.85,0.0,5.0
CCCCCCCCCCCCN=C(N)N.CC(O)=O,water,298,-2.6592,mol/L,287.448,3.2716000000000003,101.69999999999999,3.0,2.0
COc1ccccc1C(N)=O,water,298,-1.7815,mol/L,151.16499999999996,0.7941,52.32,1.0,2.0
OC(=O)CN(C[P](O)(O)=O)C[P](O)(O)=O,water,298,-0.0256,mol/L,263.079,-1.3566000000000003,155.6,5.0,4.0
Nc1ccc(CC(=O)c2ccccc2)cc1,water,298,-1.805,mol/L,211.26400000000004,2.6942000000000013,43.09,1.0,2.0
Clc1ccc(Oc2ccc(Cl)cc2)cc1,water,298,-4.7999,mol/L,239.101,4.785700000000003,9.23,0.0,1.0
O.CC(C)(O)C1CCC(C)(O)CC1,water,298,-1.6774,mol/L,190.28299999999996,0.8737999999999999,71.96000000000001,2.0,2.0
OC(=O)C1(O)c2ccccc2c3ccc(Cl)cc13,water,298,-4.0777,mol/L,260.676,2.640900000000001,57.53,2.0,2.0
Nc1ccc(N)c2C(=O)c3c(N)ccc(N)c3C(=O)c12,water,298,-6.9515,mol/L,268.276,0.7908000000000002,138.22,4.0,6.0
CC(=O)Oc1c(cc(c(C)c1C(C)(C)C)[N+]([O-])=O)[N+]([O-])=O,water,298,-4.4717,mol/L,296.279,3.034220000000002,112.58000000000001,0.0,6.0
OC(=O)CNC=O,water,298,0.2672,mol/L,103.07699999999998,-1.183,66.4,2.0,2.0
Oc1ccc(cc1)C(=O)Cc2ccccc2,water,298,-1.5008,mol/L,212.248,2.8176000000000005,37.3,1.0,2.0
CCO[P](=S)(OCC)SCC[S](=O)(=O)CC,water,298,-2.5403,mol/L,306.41100000000006,2.4518000000000004,52.6,0.0,6.0
Cc1c2ccccc2cc3c1cc(F)c4ccccc34,water,298,-7.31,mol/L,260.311,5.593720000000003,0.0,0.0,0.0
Cc1cccc2ccc3cc4ccccc4cc3c12,water,298,-6.644,mol/L,242.321,5.454620000000004,0.0,0.0,0.0
OC(=O)c1cc(Cl)ccc1[N+]([O-])=O,water,298,-1.319,mol/L,201.565,1.9464000000000004,80.44,1.0,3.0
CCCCO[P](=O)(OCCCC)Oc1ccccc1,water,298,-3.4746,mol/L,286.30799999999994,4.806900000000004,44.760000000000005,0.0,4.0
COC(=O)C1(O)c2ccccc2c3ccc(Cl)cc13,water,298,-4.1836,mol/L,274.70300000000003,2.729300000000001,46.53,1.0,3.0
COc1c(O)c(Cl)c(Cl)c(Cl)c1Cl,water,298,-4.7949,mol/L,261.919,4.014400000000001,29.46,1.0,2.0
CO[P](=S)(OC)SCC(=O)N(C)C=O,water,298,-1.9954,mol/L,257.27299999999997,0.8516999999999999,55.84,0.0,6.0
Cc1c2ccccc2cc3c4ccccc4cc(F)c13,water,298,-7.31,mol/L,260.311,5.593720000000003,0.0,0.0,0.0
Cc1c2ccccc2cc3c4ccccc4ccc13,water,298,-7.343,mol/L,242.321,5.454620000000004,0.0,0.0,0.0
OC(=O)CCCCCCCC=O,water,298,-0.9574,mol/L,172.224,2.0006,54.37,1.0,2.0
ClC(Cl)C(=O)Nc1ccccc1,water,298,-3.3555,mol/L,204.05600000000004,2.4288,29.1,1.0,1.0
CCC1OCCO1,water,298,0.2919,mol/L,102.133,0.7693,18.46,0.0,2.0
N\C(NO)=C(/N)N=O,water,298,-0.7773,mol/L,118.09600000000002,-1.2244000000000002,113.72999999999999,4.0,6.0
Cc1cc(O)ccc1[N+]([O-])=O,water,298,-2.1103,mol/L,153.13699999999997,1.6088200000000001,63.37,1.0,3.0
[O-][N+](=O)c1ccc(cc1)N=Nc2ccc(Nc3ccccc3)cc2,water,298,-7.5229,mol/L,318.336,5.753800000000004,79.89,1.0,5.0
NC(N)=Nc1sc2ccccc2n1,water,298,-2.4412,mol/L,192.247,1.2012,77.29,2.0,3.0
OC(=O)CCC=CC(O)=O,water,298,-1.2045,mol/L,144.12599999999998,0.49200000000000016,74.6,2.0,2.0
CCO[P](=S)(OCC)SC[S](=O)CC,water,298,-1.5384,mol/L,276.38500000000005,2.7432000000000016,35.53,0.0,5.0
CCO[P](=S)(OCC)SC[S](=O)(=O)CC,water,298,-2.5309,mol/L,292.38400000000007,2.409300000000001,52.6,0.0,6.0
CCOc1snc(n1)C(Cl)(Cl)Cl,water,298,-3.3254,mol/L,247.53400000000002,2.7635000000000014,35.010000000000005,0.0,4.0
CCOC(=O)N(C)C(=O)CS[P](=S)(OCC)OCC,water,298,-2.5177,mol/L,329.3800000000001,2.6320000000000006,65.07000000000001,0.0,7.0
CCOC(=O)C(S[P](=S)(OC)OC)c1ccccc1,water,298,-4.4643,mol/L,320.37199999999996,3.5413000000000023,44.760000000000005,0.0,6.0
C[Hg]C#N,water,298,-0.0821,mol/L,241.643,0.59808,23.79,0.0,1.0
Cc1nc(C)c(cc1C(O)=O)C(O)=O,water,298,-2.809,mol/L,195.17399999999998,1.09484,87.49000000000001,2.0,3.0
[Na+].[Na+].[Na+].[O-][S](=O)(=O)c1cc2C=CC(=O)\C(=N/Nc3ccc(c4ccccc34)[S]([O-])(=O)=O)c2c(c1)[S]([O-])(=O)=O,water,298,-0.8783,mol/L,604.4830000000003,-8.023800000000016,213.05999999999997,1.0,12.0
CC(=O)Nc1ccc(OC(C)=O)cc1,water,298,-1.9076,mol/L,193.20199999999997,1.5702999999999998,55.4,1.0,3.0
CN1C(=O)N(C)c2nc(C)c(C)nc2C1=O,water,298,-1.3429,mol/L,220.23199999999997,-0.3559600000000003,69.78,0.0,6.0
CCCC(=O)Oc1ccc(cc1)[N+]([O-])=O,water,298,-3.9404,mol/L,209.20099999999996,2.3003,69.44,0.0,4.0
Oc1ccc2ccccc2c1N=O,water,298,-2.9374,mol/L,173.17099999999996,2.9433000000000007,49.660000000000004,1.0,3.0
C[C@@](CCC([O-])=O)(N=N[C@](C)(CCC([O-])=O)C#N)C#N,water,298,-2.0083,mol/L,278.268,-0.936639999999999,152.55999999999997,0.0,8.0
CCO[P](=S)(OCC)SCN1N=Nc2ccccc2C1=O,water,298,-4.5171,mol/L,345.3860000000001,2.779700000000001,66.24000000000001,0.0,8.0
Nc1cc2c3ccccc3ccc2c4ccccc14,water,298,-6.1958,mol/L,243.309,4.728400000000002,26.02,1.0,1.0
CNC(=O)Oc1cc(cc(c1)C(C)(C)C)C(C)(C)C,water,298,-4.2445,mol/L,263.381,3.999800000000003,38.33,1.0,2.0
COc1cc(Cl)c(OC)cc1Cl,water,298,-4.413,mol/L,207.056,3.010600000000002,18.46,0.0,2.0
CNCCC(O)=O,water,298,-0.0543,mol/L,103.12099999999998,-0.31949999999999995,49.33,2.0,2.0
Clc1ccccc1Oc2ccccc2,water,298,-4.7796,mol/L,204.656,4.1323000000000025,9.23,0.0,1.0
CCCCO[P](=O)(OCC)OCC,water,298,-1.1466,mol/L,210.20999999999995,2.9842000000000013,44.760000000000005,0.0,4.0
CCOC(=O)[C@@H](N)CC(C)C,water,298,-0.5606,mol/L,159.229,0.9228999999999997,52.32,1.0,3.0
OC(=O)C(CSSCC(NC(=O)Cc1ccccc1)C(O)=O)NC(=O)Cc2ccccc2,water,298,-1.833,mol/L,476.5760000000002,1.992,132.8,4.0,6.0
C1C[n+]2ccccc2c3cccc[n+]13,water,298,-3.425,mol/L,184.242,0.9421999999999999,7.76,0.0,0.0
COc1cc(Cl)c(Cl)cc1OC,water,298,-3.4588,mol/L,207.056,3.010600000000002,18.46,0.0,2.0
COC1=COC(=CC1=O)CS[P](=O)(OC)OC,water,298,0.7286,mol/L,280.238,2.2824999999999998,74.97,0.0,7.0
CC(O)([P](O)(O)=O)[P](O)(O)=O,water,298,0.5249,mol/L,206.027,-0.9922000000000002,135.29,5.0,3.0
CCC(C)c1cc(cc(c1OC(C)=O)[N+]([O-])=O)[N+]([O-])=O,water,298,-2.1082,mol/L,282.252,2.9418000000000024,112.58000000000001,0.0,6.0
C[C@H]1C[NH2+][C@H](C)C[NH2+]1,water,298,0.4864,mol/L,116.208,-2.096199999999998,33.22,2.0,0.0
CC(=O)C=CC(O)=O,water,298,-0.2332,mol/L,114.09999999999998,0.2161999999999999,54.37,1.0,2.0
OC(=O)CCCCCCCCCCBr,water,298,-3.699,mol/L,265.1909999999999,3.9768000000000034,37.3,1.0,1.0
CCC(N)C(O)=O,water,298,0.2868,mol/L,103.12099999999998,-0.19169999999999998,63.32,2.0,2.0
FC(Cl)C(F)(F)F,water,298,-1.959,mol/L,136.475,2.0831,0.0,0.0,0.0
COc1cccc(Cl)c1,water,298,-2.783,mol/L,142.58499999999998,2.3486000000000002,9.23,0.0,1.0
CCO[P](=S)(OCC)Oc1nc(Cl)c(Cl)cc1Cl,water,298,-5.4956,mol/L,350.591,4.718100000000002,40.58,0.0,5.0
O=C1CCCC1C#N,water,298,-0.3567,mol/L,109.128,0.87918,40.86,0.0,2.0
CCSC(=O)N(CC)CC,water,298,-1.6917,mol/L,161.26999999999998,2.2013,20.310000000000002,0.0,2.0
C=CCO[P](=O)(OCC=C)c1ccccc1,water,298,-2.8999,mol/L,238.22299999999998,2.9102000000000015,35.53,0.0,3.0
CCCCO[P](=O)(CCCC)CCCC,water,298,-1.7166,mol/L,234.3199999999999,4.6814000000000044,26.3,0.0,2.0
CC1=C(Cl)C(=O)C(=C(C)N1)Cl,water,298,-4.2834,mol/L,192.04500000000002,2.29854,32.86,1.0,1.0
Oc1ccc(C=O)cc1Br,water,298,-2.1794,mol/L,201.01899999999998,1.9672,37.3,1.0,2.0
Clc1ccc(cc1)c2cccc(Cl)c2,water,298,-6.4001,mol/L,223.102,4.660400000000002,0.0,0.0,0.0
OC(=O)COc1cccc(Cl)c1Cl,water,298,-2.8097,mol/L,221.039,2.4568000000000003,46.53,1.0,2.0
CCOC(=O)C(C)OC(C)=O,water,298,-0.6994,mol/L,160.16899999999998,0.5010999999999999,52.6,0.0,4.0
Nc1ccc(SC#N)cc1,water,298,-2.6015,mol/L,150.20600000000002,1.84198,49.81,1.0,3.0
Nc1nc2nc[nH]c2c(n1)C(F)(F)F,water,298,-3.1346,mol/L,203.12699999999995,0.9539,80.48,2.0,4.0
CCN(CC)c1nc(NC(C)C)nc(OC)n1,water,298,-4.889,mol/L,239.323,1.5466999999999997,63.17,1.0,6.0
CNc1nc(Cl)nc(NC(C)C)n1,water,298,-2.8896,mol/L,201.66100000000003,1.3869999999999998,62.730000000000004,2.0,5.0
Oc1ccc(C=O)cc1[N+]([O-])=O,water,298,-2.9512,mol/L,167.11999999999998,1.1129,80.44,1.0,4.0
CC(Br)CCl,water,298,-1.8476,mol/L,157.438,2.0086,0.0,0.0,0.0
CNc1nc(NC(C)C)nc(OC)n1,water,298,-1.7509,mol/L,197.24199999999996,0.7421999999999997,71.96000000000001,2.0,6.0
NC1=C(Br)C(=O)N(N=C1)c2ccccc2,water,298,-3.124,mol/L,266.098,1.5772,60.910000000000004,1.0,4.0
CC(CCC(O)=O)CC(O)=O,water,298,0.1899,mol/L,160.16899999999998,0.962,74.6,2.0,2.0
CN[C@@H](CC(C)C)C(O)=O,water,298,-0.5146,mol/L,145.202,0.7050999999999998,49.33,2.0,2.0
CC(C)C(NC(C)=O)C(O)=O,water,298,-0.6325,mol/L,159.18499999999997,0.2316999999999998,66.4,2.0,2.0
C=CCCCC=C,water,298,-3.3396,mol/L,96.17299999999999,2.5287000000000006,0.0,0.0,0.0
CC1CCCC(C)(C)C1,water,298,-4.8532,mol/L,126.243,3.2227000000000023,0.0,0.0,0.0
OC(=O)CNCCC#N,water,298,0.3237,mol/L,128.131,-0.4257199999999999,73.12,2.0,3.0
CC[C@@H](C)[C@H](N)C(O)=O,water,298,-0.3895,mol/L,131.17499999999998,0.44439999999999996,63.32,2.0,2.0
OC1(CCN(CCCC(=O)c2ccc(F)cc2)CC1)c3ccccc3,water,298,-4.1183,mol/L,341.42600000000004,3.7722000000000033,40.54,1.0,3.0
CC(C)(C)CCCO,water,298,-1.5402,mol/L,116.204,1.8050000000000002,20.23,1.0,1.0
NC(=O)C[C@H](NC(N)=O)C(O)=O,water,298,-0.511,mol/L,175.144,-2.0167,135.51000000000002,4.0,3.0
CN(C)C(=O)N(c1ccc(Cl)c(Cl)c1)C(=O)c2ccccc2,water,298,-4.3238,mol/L,337.206,4.321800000000003,40.620000000000005,0.0,2.0
NC(=O)NCl,water,298,0.3256,mol/L,94.501,-0.1914999999999999,55.120000000000005,2.0,1.0
CC(C)C[C@H](N)C(=O)NCC(=O)NCC(O)=O,water,298,0.2124,mol/L,245.27899999999997,-1.3231999999999968,121.52000000000001,4.0,4.0
OCC(O)C(O)C(O)C(O)C(O)C=O,water,298,-0.3226,mol/L,210.18200000000002,-4.017899999999999,138.45000000000002,6.0,7.0
OC(=O)C1=C/C(C=CC1=O)=N/Nc2ccccc2,water,298,-3.0559,mol/L,242.234,1.6043999999999998,78.75999999999999,2.0,4.0
COc1ccc(cc1)C(=O)CCC(O)=O,water,298,-1.0632,mol/L,208.21299999999994,1.7427,63.6,1.0,3.0
CCC(NC=NN)C(O)=O,water,298,-0.8608,mol/L,145.162,-0.6587999999999994,87.71000000000001,3.0,3.0
OC1=CC=C(Br)C=CC1=O,water,298,-3.5629,mol/L,201.019,1.5148999999999997,37.3,1.0,2.0
BrC1CCC(Br)C(Br)CCC(Br)C(Br)CCC1Br,water,298,-7.8728,mol/L,641.6999999999999,6.921600000000004,0.0,0.0,0.0
CC(C)COC(=O)C(C)(C)O,water,298,-0.7276,mol/L,160.21299999999997,0.9564999999999999,46.53,1.0,3.0
Oc1ccccc1C(=O)N2CCOCC2,water,298,-1.7037,mol/L,207.22899999999993,0.8646000000000003,49.769999999999996,1.0,3.0
[O-][N+](=O)c1cccc(Cl)c1Cl,water,298,-3.4881,mol/L,192.00099999999998,2.901600000000001,43.14,0.0,2.0
BrCC(CBr)(CBr)CBr,water,298,-5.3844,mol/L,387.735,3.5524000000000013,0.0,0.0,0.0
CCCO[P](=S)(OCCC)O[P](=S)(OCCC)OCCC,water,298,-4.1009,mol/L,378.4330000000002,5.158400000000005,46.150000000000006,0.0,7.0
Cc1ccnc2c1ccc3c(C)ccnc23,water,298,-3.9686,mol/L,208.26399999999998,3.399840000000002,25.78,0.0,2.0
CCC(=O)OOC(=O)CC,water,298,-0.9634,mol/L,146.14199999999997,0.8077999999999999,52.6,0.0,4.0
CCC(COC(=O)C(C)=C)(COC(=O)C(C)=C)COC(=O)C(C)=C,water,298,-4.4155,mol/L,338.40000000000003,2.7407000000000012,78.9,0.0,6.0
OCC(CO)(CBr)CBr,water,298,-0.8384,mol/L,261.941,0.7471999999999999,40.46,2.0,2.0
CC(Oc1ccc(Cl)cc1)C(O)=O,water,298,-2.1351,mol/L,200.62099999999998,2.1918999999999995,46.53,1.0,2.0
CN(C)C(N)=N,water,298,-1.7306,mol/L,87.126,-0.5585299999999997,53.11,2.0,1.0
OC(=O)C1=CCCc2ccccc12,water,298,-2.7939,mol/L,174.199,2.1008,37.3,1.0,1.0
OCC(O)C(O)C(O)C(O)C(O)CO,water,298,0.3722,mol/L,212.198,-4.224499999999998,141.61,7.0,7.0
O/N=C/1CCCC=C1,water,298,-0.7034,mol/L,111.14399999999999,1.5567,32.59,1.0,2.0
Oc1cc(Cl)ccc1Oc2ccc(Cl)cc2Cl,water,298,-4.4617,mol/L,289.54499999999996,5.144700000000002,29.46,1.0,2.0
C=CCCN=C=S,water,298,-2.391,mol/L,113.18499999999997,1.6653,12.36,0.0,2.0
N[C@@H](Cc1cc(Cl)c(O)c(Cl)c1)C(O)=O,water,298,-0.796,mol/L,250.081,1.6533999999999998,83.55000000000001,3.0,3.0
Nc1nc(N)nc(Cl)n1,water,298,-2.3849,mol/L,145.553,-0.31060000000000015,90.71,2.0,5.0
CCC(=O)NCCNC(=O)CC,water,298,0.3746,mol/L,172.22799999999998,0.03879999999999928,58.2,2.0,2.0
Clc1ccc(cc1)C(=C(Cl)Cl)c2ccccc2Cl,water,298,-6.3563,mol/L,318.03,6.187900000000002,0.0,0.0,0.0
CN1C(=O)N(C)c2n[se]nc2C1=O,water,298,-2.2994,mol/L,245.1,-1.9157999999999993,69.78,0.0,6.0
OC(=O)c1occ(Br)c1,water,298,-1.1841,mol/L,190.98,1.7403,50.44,1.0,2.0
CCCCCCCC#C,water,298,-4.2405,mol/L,124.22699999999999,2.980100000000002,0.0,0.0,0.0
CC1CCCCN1CCCOC(=O)c2ccc(Cl)c(Cl)c2,water,298,-4.2178,mol/L,330.255,4.414700000000004,29.54,0.0,3.0
Clc1c(Cl)c(Cl)c2nccnc2c1Cl,water,298,-5.428,mol/L,267.93,4.2434,25.78,0.0,2.0
CC(C)CCC(C)(C)C,water,298,-5.0474,mol/L,128.259,3.468700000000003,0.0,0.0,0.0
CCOC(=O)N(CC)CC,water,298,-1.0651,mol/L,145.202,1.4847,29.54,0.0,2.0
Oc1cc(O)c(c(O)c1)C(=O)c2ccccc2,water,298,-1.8708,mol/L,230.219,2.0343999999999993,77.75999999999999,3.0,4.0
OC[C@H]1OC2(COC3(CO2)O[C@H](CO)[C@@H](O)[C@@H]3O)[C@@H](O)[C@@H]1O,water,298,-0.0058,mol/L,324.282,-4.348399999999995,158.3,6.0,10.0
CC(C)Cc1sc(N[S](=O)(=O)c2ccc(N)cc2)nn1,water,298,-3.8226,mol/L,312.42,2.1196,97.97,2.0,6.0
CN(Cc1cc(Br)cc(Br)c1N)C2CCCCC2,water,298,-1.9733,mol/L,376.13600000000025,4.558300000000004,29.259999999999998,1.0,2.0
OCCN(Cc1ccc(Oc2ccc(cc2)[N+]([O-])=O)cc1)C(=O)C(Cl)Cl,water,298,-5.1241,mol/L,399.23,3.511700000000002,92.91,1.0,5.0
CCCCCCCCCC(C(O)=O)C(O)=O,water,298,-3.3016,mol/L,230.304,2.9125000000000005,74.6,2.0,2.0
FC(F)(F)c1[nH]c2ccc(Cl)c(Cl)c2n1,water,298,-3.5677,mol/L,255.026,3.8884999999999996,28.68,1.0,1.0
CCC1(C(=O)NC(=O)NC1=O)C2=CC3CCC(C3)C2,water,298,-2.7696,mol/L,262.30899999999997,1.4951999999999999,75.27000000000001,2.0,3.0
C[C@H](CC(O)=O)C(O)=O,water,298,0.6311,mol/L,132.11499999999998,0.18180000000000007,74.6,2.0,2.0
NC(C(O)C(O)C(O)CO)C(O)=O,water,298,-0.859,mol/L,195.17099999999996,-3.5267000000000004,144.24,6.0,6.0
C(Cc1ccccc1)NCc2ccccc2,water,298,-2.7229,mol/L,211.308,3.0189000000000012,12.03,1.0,1.0
CCc1ccc(NC(C)=O)cc1,water,298,-2.1453,mol/L,163.22,2.2074,29.1,1.0,1.0
OCCCCCCCCCCC([O-])=O,water,298,-2.7039,mol/L,201.28599999999997,1.2394999999999998,60.36,1.0,3.0
COc1cc(OC)c2C(=O)C3(Oc2c1)C(C)CC(=O)C=C3OC,water,298,-3.699,mol/L,318.32500000000005,2.1569000000000003,71.06,0.0,6.0
CCOC(C)C(=O)C=O,water,298,-0.1554,mol/L,130.143,0.1794,43.370000000000005,0.0,3.0
Clc1ccc(cc1)C(C(=O)C2C(=O)c3ccccc3C2=O)c4ccccc4,water,298,-3.5738,mol/L,374.8230000000001,4.736400000000003,51.21,0.0,3.0
Cc1cc2ccccc2c3ccc4ccccc4c13,water,298,-6.592,mol/L,242.321,5.454620000000004,0.0,0.0,0.0
Cc1c(C)c2c3ccccc3ccc2c4ccccc14,water,298,-7.0109,mol/L,256.348,5.763040000000004,0.0,0.0,0.0
CCc1c2ccccc2cc3c1ccc4ccccc34,water,298,-6.796,mol/L,256.348,5.708600000000004,0.0,0.0,0.0
N[S](=O)(=O)c1cccc(c1)[S](N)(=O)=O,water,298,-2.1693,mol/L,236.27399999999997,-1.0185999999999997,120.32,2.0,4.0
Cc1cc(C)c[n+]([O-])c1,water,298,0.9095,mol/L,123.15499999999999,0.93684,26.939999999999998,0.0,1.0
NCc1ccccn1,water,298,0.966,mol/L,108.14399999999998,0.5403000000000001,38.91,1.0,2.0
NCc1ccncc1,water,298,0.966,mol/L,108.14399999999998,0.5403000000000001,38.91,1.0,2.0
CCO[P](=O)(OCC)SCC(=O)NC(C)(C)C#N,water,298,-0.6237,mol/L,294.31300000000005,2.3190800000000005,88.41999999999999,1.0,6.0
CCO[P](=S)(OCC)Oc1ccc(N)cc1,water,298,-2.826,mol/L,261.28299999999996,2.945100000000001,53.71,1.0,5.0
Clc1cc(Cl)nc(n1)c2ccccc2,water,298,-4.9544,mol/L,225.07800000000003,3.450400000000002,25.78,0.0,2.0
CCCCCC1CCCC1,water,298,-6.0863,mol/L,140.26999999999998,3.7569000000000026,0.0,0.0,0.0
Cc1cc(ccc1N=Nc2ccccc2)N(CCO)CCO,water,298,-4.1254,mol/L,299.3740000000001,3.2014200000000037,68.42,2.0,5.0
COc1cc(N[S](=O)(=O)c2ccc(N)cc2)nc(C)n1,water,298,-2.543,mol/L,294.33600000000007,1.17662,107.2,2.0,6.0
OC(=O)CN1C(=O)Sc2cccc(Cl)c12,water,298,-2.6087,mol/L,243.671,1.8010000000000004,59.3,1.0,4.0
NNC(=O)CC(=O)NN,water,298,-0.121,mol/L,132.123,-2.6437,110.24,4.0,4.0
OCC(O)COC(=O)c1ccccc1Nc2ccnc3cc(Cl)ccc23,water,298,-0.9694,mol/L,372.80800000000016,3.141800000000001,91.67999999999999,3.0,6.0
C[C@H]([NH3+])C(C)(C)C,water,298,0.9861,mol/L,102.201,0.6628999999999994,27.64,1.0,0.0
COCCC(=O)OC,water,298,0.8027,mol/L,118.13199999999999,0.19589999999999996,35.53,0.0,3.0
NNC(=O)C(O)C(O)C(O)C(O)CO,water,298,-0.4985,mol/L,210.18599999999998,-4.587799999999996,156.26999999999998,7.0,7.0
[nH]1c2ccccc2nc1c3occc3,water,298,-3.414,mol/L,184.198,2.8229000000000006,41.82,1.0,2.0
Brc1ccc2Nc3ccccc3Sc2c1,water,298,-6.1119,mol/L,278.17400000000004,4.657300000000001,12.03,1.0,2.0
Ic1ccc2Nc3ccccc3Sc2c1,water,298,-6.9278,mol/L,325.1740000000001,4.499400000000001,12.03,1.0,2.0
ClCC[S](=O)(=O)CC[S](=O)(=O)CCCl,water,298,-1.4486,mol/L,283.198,0.2936000000000003,68.28,0.0,4.0
OC(=O)CN(CC(O)=O)Cc1cc2C(=O)c3ccccc3C(=O)c2c(O)c1O,water,298,-1.8077,mol/L,385.32800000000015,0.8443999999999996,152.43999999999997,4.0,7.0
COC(=O)c1ccc(O)c(Cl)c1,water,298,-2.873,mol/L,186.594,1.8321999999999998,46.53,1.0,3.0
CCC(O)C(C)(C)C,water,298,-1.1514,mol/L,116.204,1.8034,20.23,1.0,1.0
OC(=O)C[C@@H](Cl)C(O)=O,water,298,-0.7953,mol/L,152.53300000000002,0.15310000000000018,74.6,2.0,2.0
CCCCCCC(C(O)=O)C(O)=O,water,298,-1.6566,mol/L,188.22299999999998,1.7422000000000002,74.6,2.0,2.0