Solute,Solvent,Temperature_K,Solubility,Units,MW,LogP,TPSA,HBD,HBA
[Cl-].C[N+](C)=CCC(O)CC(N)=O,water,298,0.593129503,mol/L,194.66199999999998,-4.040299999999997,66.33000000000001,2.0,2.0
[O-][N+](=O)c1cc(Cl)cc(Cl)c1,water,298,-3.584333486,mol/L,192.001,2.9016,43.14,0.0,2.0
SC1CCCCC1,water,298,-3.367213956,mol/L,116.22900000000001,2.2489,0.0,1.0,1.0
CCC(C)C,water,298,-3.172500616,mol/L,72.151,2.0524,0.0,0.0,0.0
[S--].[S--].[Sn+4],water,298,-3.580841851,mol/L,182.845,-0.38560000000000005,0.0,0.0,0.0
Cc1cccc(C)c1NC(=O)C[NH+]2CC[NH2+]CC2,water,298,0.443282789,mol/L,249.35799999999995,-1.2961599999999969,50.15,3.0,1.0
[Na+].[Na+].[Na+].OC([O-])=O.[O-]C([O-])=O,water,298,0.050861362,mol/L,189.99399999999997,-12.547300000000002,123.55000000000001,1.0,5.0
N[S](=O)(=O)c1sc(Cl)cc1,water,298,-3.295936368,mol/L,197.668,1.0489000000000004,60.160000000000004,1.0,3.0
CC(C)N(C(=O)CO)c1ccc(F)cc1,water,298,-1.178639899,mol/L,211.236,1.5594,40.540000000000006,1.0,2.0
C1CCc2ccccc2C1,water,298,-3.451934285,mol/L,132.20599999999996,2.5654000000000003,0.0,0.0,0.0
CCCCC(CC)CNCC(CC)CCCC,water,298,-3.729638078,mol/L,241.46299999999994,5.008800000000004,12.03,1.0,1.0
[OH-].[Cu++].[Cu++].[O-][P]([O-])([O-])=O,water,298,-3.745054809,mol/L,239.06899999999996,-3.0064,116.25,0.0,5.0
CCCCCCC(=O)OCC=C,water,298,-3.597623767,mol/L,170.25199999999998,2.686000000000001,26.3,0.0,2.0
C(OCc1ccccc1)c2ccccc2,water,298,-3.667836455,mol/L,198.265,3.403400000000002,9.23,0.0,1.0
CCCCCCCc1ccc(O)cc1,water,298,-3.659701705,mol/L,192.30200000000002,3.9051000000000027,20.23,1.0,1.0
C(OCc1ccccc1)c2ccccc2,water,298,-3.672963959,mol/L,198.265,3.403400000000002,9.23,0.0,1.0
CCCCCCCCCc1ccc(OCC(O)=O)cc1,water,298,-3.84259676,mol/L,278.392,4.443100000000004,46.53,1.0,2.0
[Zn++].[Zn++].[Zn++].OC(CC([O-])=O)(CC([O-])=O)C([O-])=O.OC(CC([O-])=O)(CC([O-])=O)C([O-])=O,water,298,-2.254040258,mol/L,574.3680000000005,-10.512700000000002,281.23999999999995,2.0,14.0
Nc1cccc2c(N)cccc12,water,298,-3.597157469,mol/L,158.204,2.0042,52.04,2.0,2.0
CCCCCCCCCCCCCCCCN,water,298,-3.803066996,mol/L,241.4629999999999,5.4264000000000046,26.02,1.0,1.0
CCCCCCCCCCCCN,water,298,-3.688220709,mol/L,185.35499999999996,3.8660000000000023,26.02,1.0,1.0
CCCCCCCCCCCCCCCCCCN,water,298,-3.850802567,mol/L,269.5169999999999,6.206600000000005,26.02,1.0,1.0
CCCCCCCCCC(C)(C)SSC1=NNC(=S)S1,water,298,-3.988563911,mol/L,350.644,6.860290000000005,28.68,1.0,5.0
CC(O)C(C)\C=C/C1CC=C(C)C1(C)C,water,298,-3.786028703,mol/L,208.34499999999997,3.5519000000000025,20.23,1.0,1.0
[H+].[Cl-].NNC(=O)C(N)CO,water,298,0.510462812,mol/L,155.58499999999998,-5.587599999999998,101.37,4.0,4.0
CC(=C)C(=O)OCC(F)(F)C(F)(F)C(F)(F)C(F)F,water,298,-3.972181135,mol/L,300.1449999999999,3.2767000000000017,26.3,0.0,2.0
CCNc1nc(Cl)nc(NC(C)C)n1,water,298,-3.829627065,mol/L,215.68800000000002,1.7770999999999997,62.730000000000004,2.0,5.0
CC(C)(c1ccc(O)c(CC=C)c1)c2ccc(O)c(CC=C)c2,water,298,-3.996383552,mol/L,308.42100000000005,4.8807000000000045,40.46,2.0,2.0
CC(C)CC1(C)OCC(CO)O1,water,298,-0.705980377,mol/L,174.23999999999998,1.1563999999999999,38.69,1.0,3.0
F[S](F)(F)(F)(F)F,water,298,-3.673154735,mol/L,146.055,3.1693999999999996,0.0,0.0,0.0
CC(C)CCCCCN(CCCCCC(C)C)CCCCCC(C)C,water,298,-4.05724758,mol/L,353.67900000000014,7.93760000000001,3.24,0.0,1.0
CCCCCC(CO)CCC,water,298,-3.722318506,mol/L,158.28499999999997,2.9753000000000016,20.23,1.0,1.0
C1CN(CCC1Nc2ccccc2)Cc3ccccc3,water,298,-3.954222946,mol/L,266.388,3.7631000000000023,15.27,1.0,2.0
OC(=O)C(CCBr)(c1ccccc1)c2ccccc2,water,298,-4.069491258,mol/L,319.19800000000004,3.8423000000000025,37.3,1.0,1.0
CC12CCC(=O)C=C1C=CC3C2CCC4(C)C3CCC45CCC(=O)O5,water,298,-4.100706158,mol/L,340.46300000000014,4.370100000000003,43.370000000000005,0.0,3.0
[Na+].[Na+].CCCCCCCC\C=C/CCCCCCCCNC(=O)CC(C([O-])=O)[S]([O-])(=O)=O,water,298,-0.019515783,mol/L,491.60200000000026,-2.798099999999991,126.42999999999998,1.0,6.0
CC(=C)C(=O)OCC(F)(F)C(F)(F)C(F)(F)C(F)F,water,298,-4.045967349,mol/L,300.1449999999999,3.2767000000000017,26.3,0.0,2.0
CC1(C)C2CCC3(C2)C1C(=O)CCC3(C)C,water,298,-3.940004359,mol/L,220.35599999999997,3.818000000000003,17.07,0.0,1.0
CC(C)(C)CCCCC(O)=O,water,298,-0.767955255,mol/L,158.241,2.677500000000001,37.3,1.0,1.0
CC(C)(C)CCCCC(O)=O,water,298,-2.475043149,mol/L,158.241,2.677500000000001,37.3,1.0,1.0
CCCCCCCCCCCCCCOC(=O)OOC(=O)OCCCCCCCCCCCCCC,water,298,-4.320693308,mol/L,514.7880000000006,10.609999999999992,71.06,0.0,6.0
COCc1ccc(cc1)c2ccc(COC)cc2,water,298,-4.002368633,mol/L,242.31799999999996,3.6464000000000025,18.46,0.0,2.0
CCCCCCCCCCCCCCOC(=O)OOC(=O)OCCCCCCCCCCCCCC,water,298,-4.349900579,mol/L,514.7880000000006,10.609999999999992,71.06,0.0,6.0
S=[Fe],water,298,-3.621828866,mol/L,87.912,0.6457,0.0,0.0,1.0
C1C=CC2C3CC(C=C3)C12,water,298,-3.82022117,mol/L,132.206,2.3846000000000007,0.0,0.0,0.0
CC(C)CCCC(C)CCCC(C)=O,water,298,-4.005176134,mol/L,198.34999999999997,4.2081000000000035,17.07,0.0,1.0
Clc1ccc(Cl)c(Cl)c1,water,298,-3.980000978,mol/L,181.449,3.6468000000000007,0.0,0.0,0.0
C1CCC\C=C/CC1,water,298,-3.770339988,mol/L,110.19999999999999,2.8968000000000016,0.0,0.0,0.0
CN(C)C(=S)SSC(=S)N(C)C,water,298,-4.116196121,mol/L,240.44400000000002,2.0608,6.48,0.0,4.0
CC(=C)C(=O)OCC(F)(F)C(F)(F)C(F)(F)C(F)F,water,298,-4.222058608,mol/L,300.1449999999999,3.2767000000000017,26.3,0.0,2.0
CO[Si](CC(C)C)(OC)C(C)C,water,298,-4.02430091,mol/L,190.35899999999998,2.7874000000000008,18.46,0.0,2.0
CN1C(C)(C)CC(CC1(C)C)OC(=O)CC(C(CC(=O)OC2CC(C)(C)N(C)C(C)(C)C2)C(=O)OC3CC(C)(C)N(C)C(C)(C)C3)C(=O)OC4CC(C)(C)N(C)C(C)(C)C4,water,298,-4.672731896,mol/L,847.2359999999995,7.777400000000011,118.16,0.0,12.0
CN(C)C(=S)SSC(=S)N(C)C,water,298,-4.148017834,mol/L,240.44400000000002,2.0608,6.48,0.0,4.0
[H+].[Cl-].OC(=O)C1CCNCC1,water,298,0.384031592,mol/L,165.61999999999998,-2.812899999999998,49.33,2.0,2.0
CCOC(=O)C1=C(COCCN2C(=O)c3ccccc3C2=O)NC(=C(C1c4ccccc4Cl)C(=O)OC)C,water,298,-4.501126952,mol/L,538.9840000000003,3.6038000000000023,111.24,1.0,8.0
C=CCOC(=O)CCC1CCCCC1,water,298,-4.062449254,mol/L,196.28999999999994,3.076100000000002,26.3,0.0,2.0
CCOc1nc(NC)nc(NC(=O)N[S](=O)(=O)c2ccccc2C(=O)OC)n1,water,298,-4.387910769,mol/L,410.4120000000002,0.6089999999999994,161.5,3.0,10.0
[Ca++].[O-]C([O-])=O,water,298,-3.780265245,mol/L,100.086,-2.8278000000000003,63.19,0.0,3.0
[OH-].[OH-].[Ca++],water,298,-3.64966323,mol/L,74.09200000000001,-0.7343999999999999,60.0,0.0,2.0
O=[Ca],water,298,-3.528676684,mol/L,56.077000000000005,-0.49960000000000004,17.07,0.0,1.0
Cc1cc(Cc2ccc(N)c(C)c2)ccc1N,water,298,-4.150608709,mol/L,226.32299999999998,3.0586400000000014,52.04,2.0,2.0
CCCCNC(=S)N(CCCC)CCCC,water,298,-4.184066506,mol/L,244.4479999999999,3.563200000000003,15.27,1.0,1.0
CCCCC(CC)CNCC(CC)CCCC,water,298,-4.236722556,mol/L,241.46299999999994,5.008800000000004,12.03,1.0,1.0
Nc1ccc(Cc2ccc(N)c(Cl)c2)cc1Cl,water,298,-4.286890723,mol/L,267.159,3.7486000000000015,52.04,2.0,2.0
CC(O)C(C)(C)\C=C\C1CC=C(C)C1(C)C,water,298,-4.216746334,mol/L,222.37199999999996,3.942000000000003,20.23,1.0,1.0
CCCCCCCCCCCCCCCCN,water,298,-4.26890724,mol/L,241.4629999999999,5.4264000000000046,26.02,1.0,1.0
CCCCCCCCCCCCN,water,298,-4.154060953,mol/L,185.35499999999996,3.8660000000000023,26.02,1.0,1.0
CCCCCCCCCCCCCCCCCCN,water,298,-4.316642812,mol/L,269.5169999999999,6.206600000000005,26.02,1.0,1.0
CC(CC(C)(C)C)C[P](O)(=O)CC(C)CC(C)(C)C,water,298,-4.366128471,mol/L,290.428,5.401400000000006,37.3,1.0,1.0
N[S](=O)(=O)c1ccc(NC(=S)Nc2ccc(F)cc2)cc1,water,298,-2.989959968,mol/L,325.39000000000004,2.282,84.22,3.0,3.0
Oc1cc(Cl)ccc1Oc2ccc(Cl)cc2Cl,water,298,-4.382534824,mol/L,289.54499999999996,5.144700000000002,29.46,1.0,2.0
CCOC(=O)c1nn(c2ccc(OC)cc2)c3C(=O)N(CCc13)c4ccc(cc4)N5CCCCC5=O,water,298,-4.628205844,mol/L,488.54400000000044,3.7774000000000028,93.96999999999997,0.0,7.0
CC(C)Cc1ccc(cc1)C(C)C(O)=O,water,298,-4.257943925,mol/L,206.28499999999997,3.073200000000001,37.3,1.0,1.0
ON1CC(=O)N=C2C=CC(=CC2=C1c3ccccc3Cl)Cl,water,298,-4.465332821,mol/L,321.163,2.0008999999999997,52.9,1.0,3.0
Nc1nc(N)nc(N)n1.O=C2NC(=O)NC(=O)N2,water,298,-4.406877267,mol/L,255.19800000000004,-3.630300000000001,215.30999999999995,6.0,9.0
CCCCCC,water,298,-3.944170335,mol/L,86.178,2.5866000000000007,0.0,0.0,0.0
NC(NC#N)=NCCCCCCN=C(N)NC#N,water,298,-4.434690373,mol/L,250.31,-0.6824399999999993,148.39999999999998,4.0,4.0
CCC(=O)OC(C)(CCC=C(C)C)C=C,water,298,-4.382357893,mol/L,210.31699999999998,3.6307000000000027,26.3,0.0,2.0
[Na+].[Na+].[Na+].[Cr+3].Cc1nn(c([O-])c1N=Nc2c([O-])cc(c3ccccc23)[S]([O-])(=O)=O)c4ccccc4.Cc5nn(c([O-])c5N=Nc6c([O-])cc(c7ccccc67)[S]([O-])(=O)=O)c8ccccc8,water,298,-1.212102898,mol/L,963.794,-3.38926,291.72,0.0,18.0
[Al+3].[O-][P]([O-])(=O)O[P]([O-])(=O)O[P]([O-])([O-])=O,water,298,-4.601895549,mol/L,279.894,-4.2354,184.97,0.0,10.0
CCCCCCCCCCCCCCCCCCCCCC[N+](C)(C)C.CO[S]([O-])(=O)=O,water,298,-4.835973065,mol/L,479.81200000000024,7.607500000000009,66.43,0.0,4.0
COC1=Cc2ccccc2Nc3ccccc13,water,298,-4.514419394,mol/L,223.275,3.8881000000000023,21.259999999999998,1.0,2.0
CCCCC(CC)CO.O[P](O)(O)=O,water,298,-4.58384625,mol/L,228.225,1.2664999999999997,97.99000000000001,4.0,2.0
CC(C)CCCC(C)CCCC(C)CCCC(C)(O)C=C,water,298,-4.708653825,mol/L,296.539,6.362500000000008,20.23,1.0,1.0
CCNc1nc(Cl)nc(NCC)n1,water,298,-4.580911818,mol/L,201.661,1.3885999999999998,62.730000000000004,2.0,5.0
CCN(CC)c1ccc(cc1)[C+](c2ccccc2)c3ccc(cc3)N(CC)CC.O[S]([O-])(=O)=O,water,298,-2.057288344,mol/L,482.64600000000024,5.402790000000005,83.91,1.0,5.0
CC[C@]12CCC3=C(CCc4cc(OC)ccc34)[C@@H]1CCC2=O,water,298,-4.772922847,mol/L,296.4100000000001,4.564300000000004,26.3,0.0,2.0
COC1=CCC2=C(CC[C@@H]3[C@@H]2CC[C@]4(C)[C@@H](O)CC[C@@H]34)C1,water,298,-4.761071931,mol/L,288.43100000000004,4.2043000000000035,29.46,1.0,2.0
NC(NC#N)=NCCCCCCN=C(N)NC#N,water,298,-4.70828212,mol/L,250.31,-0.6824399999999993,148.39999999999998,4.0,4.0
CCC1(C/C=C2/CCCc3cc(OC)ccc23)C(=O)CCC1=O,water,298,-4.838817119,mol/L,312.4090000000001,4.1334000000000035,43.370000000000005,0.0,3.0
[Mn++].[O-]C([O-])=O,water,298,-4.500587238,mol/L,114.94599999999998,-2.4495000000000005,63.19,0.0,3.0
CC(=O)OC1N=C(c2ccccc2Cl)c3cc(Cl)ccc3NC1=O,water,298,-5.028666923,mol/L,363.20000000000005,3.6721000000000013,67.75999999999999,1.0,4.0
[F-].[F-].[F-].[La+3],water,298,-4.760555519,mol/L,195.9,-8.988,0.0,0.0,0.0
COC1=CCC2=C(CCC3C2CCC4(C)C3CCC4=O)C1,water,298,-4.979874504,mol/L,286.415,4.412500000000004,26.3,0.0,2.0
CC(C)Nc1nc(Cl)nc(NC(C)C)n1,water,298,-4.8840681,mol/L,229.71500000000003,2.1655999999999995,62.730000000000004,2.0,5.0
N(c1ccccc1)c2cccc3ccccc23,water,298,-4.863891631,mol/L,219.287,4.583400000000003,12.03,1.0,1.0
O=C(OCCOC(=O)c1ccccc1)c2ccccc2,water,298,-5.070092502,mol/L,270.28400000000005,2.700400000000001,52.6,0.0,4.0
O=[Ni],water,298,-4.519165649,mol/L,74.692,-0.1213,17.07,0.0,1.0
CC1CCC2(C)C(=CCCC2(C)C1OC=O)C,water,298,-5.031142113,mol/L,236.35499999999996,3.710600000000002,26.3,0.0,2.0
COC(=O)CCc1cc(c(O)c(c1)C(C)(C)C)C(C)(C)C,water,298,-5.123582907,mol/L,292.41900000000004,4.092800000000003,46.53,1.0,3.0
C1CC(CC=C1)C2OCC3(CO2)COC(OC3)C4CCC=CC4,water,298,-5.239735444,mol/L,320.4290000000001,3.4312000000000022,36.92,0.0,4.0
C1CC(CC=C1)C2OCC3(CO2)COC(OC3)C4CCC=CC4,water,298,-5.243993267,mol/L,320.4290000000001,3.4312000000000022,36.92,0.0,4.0
CCC(C)C(C)C(C)CCc1ccc(O)cc1,water,298,-5.182405388,mol/L,234.38299999999998,4.643100000000005,20.23,1.0,1.0
CC[C@]12CC[C@H]3[C@@H](CCC4=C3CC=C(C4)OC)[C@@H]1CCC2=O,water,298,-5.363817292,mol/L,300.44200000000006,4.802600000000004,26.3,0.0,2.0
CC(C)CCCCCCCOC(=O)c1ccc(C(=O)OCCCCCCCC(C)C)c(c1)C(=O)OCCCCCCCC(C)C,water,298,-5.706573948,mol/L,630.951,11.14679999999999,78.90000000000002,0.0,6.0
[OH-].[OH-].[OH-].[Cl-].[Cu++].[Cu++],water,298,-5.253985152,mol/L,213.566,-3.5314000000000005,90.0,0.0,3.0
CC(C)CCCCCCCCCCOC(=O)CCCCC(=O)OCCCCCCCCCCC(C)C,water,298,-5.659070274,mol/L,510.84400000000056,9.966999999999999,52.60000000000001,0.0,4.0
[Zn++].CN(C)C([S-])=S.CN(C)C([S-])=S,water,298,-5.498714031,mol/L,305.834,0.7571000000000002,6.48,0.0,4.0
CC(C)CCCC(C)CCCC(C)CCCC(C)=O,water,298,-5.474677518,mol/L,268.48499999999996,6.014500000000006,17.07,0.0,1.0
O=[Mn],water,298,-4.921453892,mol/L,70.937,-0.1213,17.07,0.0,1.0
CC(C)C(=O)OC[C@H]1O[C@@](COC(C)=O)(O[C@H]2O[C@H](COC(C)=O)[C@@H](OC(=O)C(C)C)[C@H](OC(=O)C(C)C)[C@H]2OC(=O)C(C)C)[C@@H](OC(=O)C(C)C)[C@@H]1OC(=O)C(C)C,water,298,-6.073534809,mol/L,846.9170000000001,2.987400000000009,238.08999999999995,0.0,19.0
[OH-].[OH-].[OH-].[Cl-].[Cu++].[Cu++],water,298,-5.479498856,mol/L,213.566,-3.5314000000000005,90.0,0.0,3.0
[Mn],water,298,-4.894774805,mol/L,54.938,-0.0025,0.0,0.0,0.0
[F-].[F-].[F-].[La+3],water,298,-5.45571032,mol/L,195.9,-8.988,0.0,0.0,0.0
[F-].[F-].[F-].[La+3],water,298,-5.535398328,mol/L,195.9,-8.988,0.0,0.0,0.0
CCOc1nc(NC)nc(NC(=O)N[S](=O)(=O)c2ccccc2C(=O)OC)n1,water,298,-5.865032024,mol/L,410.4120000000002,0.6089999999999994,161.5,3.0,10.0
O=C(CC(=O)c1ccccc1)c2ccccc2,water,298,-5.657902962,mol/L,224.25900000000001,3.1423000000000014,34.14,0.0,2.0
CC1=CC(=N/Nc2ccccc2[N+]([O-])=O)\C(=O)C=C1,water,298,-5.747595864,mol/L,257.24899999999997,2.4479000000000006,84.6,1.0,5.0
O=[Cu],water,298,-5.305116664,mol/L,79.545,-0.1213,17.07,0.0,1.0
[Fe+3].[Fe+3].[Fe+3].[Fe+3].[O-][P]([O-])(=O)O[P]([O-])([O-])=O.[O-][P]([O-])(=O)O[P]([O-])([O-])=O.[O-][P]([O-])(=O)O[P]([O-])([O-])=O,water,298,-6.30760853,mol/L,745.2030000000005,-10.0288,406.83000000000004,0.0,21.0
CCCCCCCCCCCCS[Sn](CCCC)(CCCC)SCCCCCCCCCCCC,water,298,-6.295424349,mol/L,635.7409999999999,13.336999999999975,0.0,0.0,2.0
CCCCCCCCCCCCCCCCCCCCCCOC(=O)CCCCCCCCC(=O)OCCCCCCCCCCCCCCCCCCCCCC,water,298,-6.405660228,mol/L,819.4379999999991,18.83739999999998,52.60000000000001,0.0,4.0
CC(=O)OC1(CCC2C3CC(=C)C4=CC(=O)CCC4(C)C3CCC12C)C(C)=O,water,298,-6.107793161,mol/L,384.5160000000002,4.575300000000004,60.440000000000005,0.0,4.0
CCCCN(CCCC)C(=S)SCSC(=S)N(CCCC)CCCC,water,298,-6.240523569,mol/L,422.7950000000003,6.7845000000000075,6.48,0.0,4.0
COC(=O)c1ccc2cc(ccc2c1)C(=O)OC,water,298,-6.301467629,mol/L,244.24599999999998,2.4130000000000003,52.60000000000001,0.0,4.0
CCOC(=O)c1nn(c2ccc(OC)cc2)c3C(=O)N(CCc13)c4ccc(cc4)[N+]([O-])=O,water,298,-6.618719326,mol/L,436.42400000000026,3.168700000000002,116.79999999999998,0.0,8.0
CCCCCCCCCCCCCCCCCCOCCCN(C)C,water,298,-6.85205403,mol/L,355.65100000000007,7.216200000000008,12.47,0.0,2.0
[Ta],water,298,-6.929174184,mol/L,180.948,-0.0025,0.0,0.0,0.0
COc1ccc(c(O)c1)C(=O)c2ccccc2O,water,298,-7.273884108,mol/L,244.24599999999998,2.337400000000001,66.76,2.0,4.0
O=[Cr]O[Cr]=O,water,298,-7.168974933,mol/L,151.989,-0.311,43.370000000000005,0.0,3.0
O=C1CCCCCN1C(=O)Nc2ccc(Cc3ccc(NC(=O)N4CCCCCC4=O)cc3)cc2,water,298,-7.763261262,mol/L,476.57700000000034,5.146400000000004,98.82,2.0,4.0
Cc1ccc(Sc2ccc(cc2)C(=O)c3ccccc3)cc1,water,298,-7.61540826,mol/L,304.41400000000004,5.377220000000005,17.07,0.0,2.0
[F-].[F-].[F-].[La+3],water,298,-8.071926348,mol/L,195.9,-8.988,0.0,0.0,0.0
CCCCCCCCCC(C)(C)SSC(C)(C)CCCCCCCCC,water,298,-9.190113958,mol/L,402.7980000000004,10.206399999999995,0.0,0.0,2.0
CC(C(C)(C)C)C(C)(C)SSSC(C)(C)C(C)C(C)(C)C,water,298,-9.129966133,mol/L,350.70300000000015,7.937600000000008,0.0,0.0,3.0
[Zn++].[O-][N+]([O-])=O.[O-][N+]([O-])=O,water,298,0.721755153,mol/L,189.398,-0.4807000000000001,132.4,0.0,6.0
[Ba++].CC(C)(C)CC(C)(C)CC([O-])=O.CC(C)(C)CC(C)(C)CC([O-])=O,water,298,-1.698832456,mol/L,479.8480000000004,2.796800000000001,80.25999999999999,0.0,4.0
[Br-].CCCC[P+](CCCC)(CCCC)CCCC,water,298,0.41483097,mol/L,339.3420000000001,3.208400000000001,0.0,0.0,0.0
NC(CO)(CO)CO,water,298,0.860221287,mol/L,121.136,-2.3391999999999995,86.71000000000001,4.0,4.0
NC(CO)CO,water,298,0.974427117,mol/L,91.11,-1.7017,66.48,3.0,3.0
[Ag+].[Ag+].O[S](O)(=O)=O,water,298,-1.58498354,mol/L,313.81500000000005,-0.6577999999999999,74.6,2.0,2.0
O.O.O.O.[Cl-].[Cl-].[Mn++],water,298,0.582641307,mol/L,197.904,-9.293299999999999,126.0,0.0,0.0
NC(CO)(CO)CO,water,298,0.790628369,mol/L,121.136,-2.3391999999999995,86.71000000000001,4.0,4.0
[Br-].CC[NH+](CC)CC,water,298,0.595197285,mol/L,182.10499999999996,-3.064999999999997,4.44,1.0,0.0
[Li+].[OH-],water,298,0.471989099,mol/L,23.948,-3.1728,30.0,0.0,1.0
CCOC1=C(O)C(=O)O[C@@H]1[C@@H](O)CO,water,298,0.531350525,mol/L,204.178,-0.9289000000000003,96.22000000000001,3.0,6.0
CO[S]([O-])(=O)=O.C[N+](CCO)(CCO)CCO,water,298,0.39266642,mol/L,275.323,-2.4970999999999965,127.12000000000002,3.0,7.0
NC(CO)(CO)CO,water,298,0.747956465,mol/L,121.136,-2.3391999999999995,86.71000000000001,4.0,4.0
[Na+].[Na+].CCCCCCCCCCCCCCCCc1c(Oc2ccccc2[S]([O-])(=O)=O)cccc1[S]([O-])(=O)=O,water,298,0.222765354,mol/L,598.7350000000002,1.3189000000000013,123.63,0.0,7.0
[NH4+].[NH4+].[O-]C(=O)CSSCC([O-])=O,water,298,0.459603052,mol/L,216.284,-1.3800000000000008,153.26,2.0,6.0
OCCCOCC(OCCCO)C(OCCCO)C(OCCCO)C(COCCCO)OCCCO,water,298,0.053341445,mol/L,530.6520000000005,-1.145199999999993,176.76,6.0,12.0
CC1=CC(=O)N2NC=NC2=N1,water,298,-1.347195531,mol/L,150.14100000000002,-0.27398000000000006,63.05,1.0,4.0
[Na+].[Na+].Nc1ncnc2n(cnc12)[C@@H]3O[C@H](CO[P](O)(=O)O[P]([O-])(=O)O[P](O)([O-])=O)[C@@H](O)[C@H]3O,water,298,0.016887962,mol/L,551.1460000000003,-8.885000000000005,284.79,5.0,16.0
[Na+].[Na+].CN(CC(O)=O)C(N)=N[P]([O-])([O-])=O,water,298,0.312658284,mol/L,255.07799999999997,-8.845800000000002,142.11,2.0,4.0
[Ba++].CCCCC(CC)C([O-])=O.CCCCC(CC)C([O-])=O,water,298,-0.905288847,mol/L,423.7400000000003,1.5246000000000002,80.25999999999999,0.0,4.0
[Na+].OC[C@@H](O)[C@@H](O)[C@H](O)[C@@H](O)[C@@H](O)C([O-])=O,water,298,0.317070198,mol/L,248.16299999999998,-8.462899999999998,161.51,6.0,8.0
[Na+].[Na+].[O-]C(=O)CCC(=O)C([O-])=O,water,298,0.429525605,mol/L,190.06199999999998,-9.156500000000001,97.32999999999998,0.0,5.0
NCCCCCCCCCCN,water,298,1.527701003,mol/L,172.31599999999997,2.0246,52.04,2.0,2.0
[Zn++].CCCCC(CC)C([O-])=O.CCCCC(CC)C([O-])=O,water,298,1.184806747,mol/L,351.80200000000013,1.9028999999999998,80.25999999999999,0.0,4.0
[Na+].[Na+].CC(C)CCCCCCCO.OC(=O)CC(C(O)=O)[S](O)(=O)=O,water,298,0.08106542,mol/L,402.4170000000001,-4.214599999999993,149.20000000000002,4.0,5.0
[Na+].[Na+].N[C@@H](CCC([O-])=O)C([O-])=O,water,298,0.371965463,mol/L,191.09399999999997,-9.398300000000003,106.28,1.0,5.0
[Zn++].[O-]C(=O)c1ccccc1.[O-]C(=O)c2ccccc2,water,298,-1.816841725,mol/L,307.62,0.09769999999999901,80.25999999999999,0.0,4.0
CC1CO1,water,298,0.832570488,mol/L,58.08,0.4051,12.53,0.0,1.0
CCCCOCNC(=O)C=C,water,298,-0.653663028,mol/L,157.213,1.0628,38.33,1.0,2.0
[Ba++].CC(C)(C)CC(C)(C)CC([O-])=O.CC(C)(C)CC(C)(C)CC([O-])=O,water,298,-1.145809569,mol/L,479.8480000000004,2.796800000000001,80.25999999999999,0.0,4.0
[Br-],water,298,-0.376229243,mol/L,79.904,-2.996,0.0,0.0,0.0
[Na+].CCCCCCCCCCCCN(CCC(O)=O)CCC([O-])=O,water,298,-0.040729633,mol/L,351.4630000000001,-0.17199999999999727,80.66999999999999,1.0,4.0
[Na+].CCCCCCCC/C=C/CCCCCCCC(=O)N(C)CC([O-])=O,water,298,-0.097522226,mol/L,375.52900000000017,1.2362000000000004,60.440000000000005,0.0,3.0
CC(=O)Oc1ccccc1C(O)=O,water,298,-1.778534708,mol/L,180.15899999999996,1.3101,63.6,1.0,3.0
CC(O)C(=O)NCCO,water,298,1.307032379,mol/L,133.14700000000002,-1.5243,69.56,3.0,3.0
[Ba++].[Ba++].[Ba++].[O-][P]([O-])([O-])=O.[O-][P]([O-])([O-])=O,water,298,-1.345611894,mol/L,601.9240000000002,-6.791600000000001,172.5,0.0,8.0
OCC1CCCO1,water,298,0.38877392,mol/L,102.13300000000001,0.15769999999999995,29.46,1.0,2.0
CC(=C)C(=O)OCCO.O[P](O)(O)=O,water,298,-0.960255718,mol/L,228.137,-0.8306,124.29000000000002,4.0,4.0
[K+].CC(C)CCCCCCCCCCCCCCC([O-])=O,water,298,-0.207599364,mol/L,322.574,1.8576999999999986,40.129999999999995,0.0,2.0
CCOC(=O)c1ccc(O)c(O)c1,water,298,-1.86254877,mol/L,182.17499999999998,1.2744999999999997,66.76,2.0,4.0
[Na+].[O-][S](=O)(=O)c1ccc(C=C)cc1,water,298,-0.033251081,mol/L,206.19799999999998,-1.7622999999999984,57.199999999999996,0.0,3.0
[Ba++].CCCCC(CC)C([O-])=O.CCCCC(CC)C([O-])=O,water,298,-0.402307506,mol/L,423.7400000000003,1.5246000000000002,80.25999999999999,0.0,4.0
CC(=O)CC(C)=O,water,298,0.186448508,mol/L,100.11699999999999,0.5545,34.14,0.0,2.0