Solute,Solvent,Temperature_K,Solubility,Units,MW,LogP,TPSA,HBD,HBA
OCc1c2OCOc2ccc1[N+]([O-])=O,water,298,-3.0643,mol/L,197.146,0.8157999999999999,81.82999999999998,1.0,5.0
[O-][N+](=O)c1ccc(Oc2ccc(cc2[N+]([O-])=O)C(F)(F)F)cc1,water,298,-5.2151,mol/L,328.202,4.314100000000002,95.50999999999999,0.0,5.0
CN[S]#CNCO,water,298,-0.0798,mol/L,120.17699999999999,-0.6899000000000004,44.29,3.0,3.0
CC(OC(C)=O)C#N,water,298,0.2475,mol/L,113.11599999999999,0.46157999999999993,50.09,0.0,3.0
N.N.[Cl-].[Cl-].[Pt++],water,298,-2.0741,mol/L,300.046,-5.670500000000001,70.0,2.0,2.0
CC(C)Cc1ccc(cc1)C(C)C(O)=O,water,298,-3.9923,mol/L,206.28499999999997,3.073200000000001,37.3,1.0,1.0
O=C1Nc2ccccc2NC1=O,water,298,-2.812,mol/L,162.14799999999997,0.21639999999999993,65.72,2.0,2.0
CCCCC(C)(C)CCC,water,298,-4.8108,mol/L,142.286,4.002900000000003,0.0,0.0,0.0
CCC(C)O,water,298,0.227,mol/L,74.12299999999999,0.7771999999999999,20.23,1.0,1.0
OC(=O)CSSSSCC(O)=O,water,298,-1.452,mol/L,246.356,1.8334000000000004,74.6,2.0,6.0
CCCCOCCOC(N)=O,water,298,-0.5084,mol/L,161.201,0.8984000000000001,61.550000000000004,1.0,3.0
OCc1c(Cl)c(Cl)c(Cl)c(Cl)c1Cl,water,298,-5.1467,mol/L,280.365,4.445900000000001,20.23,1.0,1.0
[Zn++].CC(O)C([O-])=O.CC(O)C([O-])=O,water,298,-1.1638,mol/L,243.52999999999997,-3.7682999999999978,120.72,2.0,6.0
OC(=O)CC(Cl)C(O)=O,water,298,0.0767,mol/L,152.53300000000002,0.15310000000000018,74.6,2.0,2.0
CCNC(=O)[C@H](C)OC(=O)Nc1ccccc1,water,298,-1.8293,mol/L,236.27100000000002,1.7596999999999998,67.42999999999999,2.0,3.0
CCCCCC[P](=O)(OCC)OCC,water,298,-2.5687,mol/L,222.26499999999996,3.8328000000000033,35.53,0.0,3.0
Oc1cc2ccccc2cc1C3=NCCN3,water,298,-3.3015,mol/L,212.25199999999995,1.8951999999999996,44.620000000000005,2.0,3.0
Cc1ccc(O)c(I)c1,water,298,-2.4662,mol/L,234.036,2.3052200000000003,20.23,1.0,1.0
CC(=O)Oc1ccccc1\C=C\C(O)=O,water,298,-3.1559,mol/L,206.19699999999997,1.7097,63.6,1.0,3.0
C\C=C1/CC2CC1C=C2,water,298,-4.1305,mol/L,120.19499999999996,2.5287000000000006,0.0,0.0,0.0
CCOC(=O)c1ccc(O)c(Cl)c1,water,298,-3.2232,mol/L,200.62099999999998,2.2222999999999997,46.53,1.0,3.0
CC(C)C[C@H](N)C(=O)N[C@@H](CCC(O)=O)C(O)=O,water,298,-0.8969,mol/L,260.28999999999996,-0.2059999999999989,129.72000000000003,4.0,4.0
CCCC(=O)N(C)N=O,water,298,-1.5347,mol/L,130.147,0.9263,49.74,0.0,3.0
C[C@@H](Oc1ccc(Cl)cc1C)C(O)=O,water,298,-2.3972,mol/L,214.64799999999997,2.5003199999999994,46.53,1.0,2.0
NC(=O)C(Cl)=C,water,298,-0.2104,mol/L,105.524,0.22420000000000007,43.09,1.0,1.0
C=COC1CC1,water,298,-1.1001,mol/L,84.11800000000001,1.3089,9.23,0.0,1.0
CC1(CCN2CCCCC2)NC(=O)NC1=O,water,298,-0.8213,mol/L,225.292,0.4605,61.440000000000005,2.0,3.0
CC(=O)O[C@H]1[C@H](O[C@@H]2OC(C)(C)O[C@H]12)[C@H]3COC(C)(C)O3,water,298,-1.5229,mol/L,302.32300000000004,0.9459999999999993,72.45000000000002,0.0,7.0
NNC(=O)c1sccn1,water,298,-0.6787,mol/L,143.17100000000002,-0.25340000000000024,68.00999999999999,2.0,4.0
CNC(=O)O\N=C(/C)SC,water,298,-0.4466,mol/L,162.214,1.0388,50.69,1.0,4.0
COc1cc(Cl)c(Cl)c(Cl)c1OC,water,298,-4.3701,mol/L,241.501,3.6640000000000015,18.46,0.0,2.0
COc1cc(Cl)ccc1O,water,298,-1.5013,mol/L,158.584,2.0542000000000002,29.46,1.0,2.0
Nc1ccc(cc1)[S](=O)(=O)Nc2scnn2,water,298,-2.8684,mol/L,256.312,0.9211,97.97,2.0,6.0
CCOC(=O)CC1(C)CCC(=O)O1,water,298,-0.7472,mol/L,186.20699999999997,1.0353,52.60000000000001,0.0,4.0
CCC(C(C(O)=O)c1ccccc1)C(O)=O,water,298,-2.3256,mol/L,222.24,1.9656,74.6,2.0,2.0
ON(c1ccccc1)C(=O)c2ccc(Cl)cc2Cl,water,298,-3.6723,mol/L,282.126,4.029400000000002,40.54,1.0,2.0
CSc1ncc2nccnc2n1,water,298,-1.7561,mol/L,178.22,1.1416999999999997,51.56,0.0,5.0
CC(C)C1(Br)C(=O)NC(=O)NC1=O,water,298,-2.2088,mol/L,249.064,0.1421,75.27000000000001,2.0,3.0
N[S](=O)(=O)c1ccc(cc1)[S](N)(=O)=O,water,298,-2.5283,mol/L,236.27399999999997,-1.0185999999999997,120.32,2.0,4.0
CCCCC1(CCCC)C(=O)NC(=O)NC1=O,water,298,-2.8756,mol/L,240.303,1.7191999999999998,75.27000000000001,2.0,3.0
Oc1cccc2ccnnc12,water,298,-2.4089,mol/L,146.14899999999997,1.3353999999999997,46.010000000000005,1.0,3.0
Cc1cnnc2c(O)cccc12,water,298,-2.6783,mol/L,160.176,1.6438199999999998,46.010000000000005,1.0,3.0
Oc1cccc2nccnc12,water,298,-1.3468,mol/L,146.14899999999997,1.3354,46.010000000000005,1.0,3.0
Oc1cncc2cccnc12,water,298,-1.6576,mol/L,146.14899999999994,1.3354,46.010000000000005,1.0,3.0
NC(=O)NCC(=O)NCC(=O)NCC(O)=O,water,298,-1.3505,mol/L,232.19599999999997,-3.028299999999999,150.61999999999998,5.0,4.0
CCNC(CC)C(O)=O,water,298,-0.4189,mol/L,131.17499999999998,0.4591,49.33,2.0,2.0
O[C@H](C(O)=O)c1ccccc1,water,298,0.1592,mol/L,152.149,0.8046,57.53,2.0,2.0
NC(=O)NCC(=O)NCC(O)=O,water,298,-0.8996,mol/L,175.14399999999998,-2.1445,121.52000000000001,4.0,3.0
CC(C)OC(C)(C)C,water,298,-2.3662,mol/L,116.204,2.2099,9.23,0.0,1.0
N[C@@H](Cc1cc(c(O)c(c1)[N+]([O-])=O)[N+]([O-])=O)C(O)=O,water,298,-1.5125,mol/L,271.185,0.16299999999999987,169.82999999999998,3.0,7.0
CC(C)=NNC(=O)Nc1ccc(cc1)[N+]([O-])=O,water,298,-3.5952,mol/L,236.231,2.1121,96.63,2.0,4.0
COc1c(cc(cc1C(O)=O)C(O)=O)C(O)=O,water,298,-1.5354,mol/L,240.16699999999997,0.7898000000000001,121.13000000000002,3.0,4.0
CCC1OC(=O)c2ccccc12,water,298,-1.747,mol/L,162.188,2.3081000000000005,26.3,0.0,2.0
CC1Nc2cc(Cl)c(cc2C(=O)N1c3ccccc3C)[S](N)(=O)=O,water,298,-3.783,mol/L,365.8420000000001,2.7141199999999994,92.5,2.0,4.0
Cc1nnc(N)nc1C,water,298,-1.0939,mol/L,124.147,0.07063999999999965,64.69,1.0,4.0
CN(C)C(CS[S](=O)(=O)c1ccccc1)CS[S](=O)(=O)c2ccccc2,water,298,-5.76,mol/L,431.62600000000015,3.160800000000002,71.52000000000001,0.0,7.0
CCC(CC#N)C#N,water,298,-0.6916,mol/L,108.144,1.44986,47.58,0.0,2.0
CC1OC(CCC1OC2OC(C)C(C(O)C2O)N(C)C)N3C=CC(=NC3=O)NC(=O)c4ccc(NC(=O)C(C)(N)CO)cc4,water,298,-2.4904,mol/L,618.6880000000001,-0.37669999999999493,210.73,6.0,13.0
OCCOC(=O)c1ccccc1C(O)=O,water,298,-1.4825,mol/L,210.18499999999997,0.5339,83.83000000000001,2.0,4.0
CCCCNC(=O)n1c(NC(=O)OC)nc2ccccc12,water,298,-4.8831,mol/L,290.323,2.572400000000001,85.25,2.0,5.0
CC(C)C(NC(C)=O)C(O)=O,water,298,-0.3606,mol/L,159.18499999999997,0.2316999999999998,66.4,2.0,2.0
Nc1cc(c(O)c(c1)[N+]([O-])=O)[N+]([O-])=O,water,298,-2.3853,mol/L,199.12199999999999,0.7907999999999997,132.53,2.0,6.0
OC(=O)Cc1sc(nc1c2ccc(Cl)cc2)c3ccccc3,water,298,-4.9644,mol/L,329.80800000000005,4.757600000000003,50.19,1.0,3.0
C=CCCCN=C=S,water,298,-2.9004,mol/L,127.21199999999999,2.0554,12.36,0.0,2.0
Oc1cc(ccc1[N+]([O-])=O)c2ccccc2,water,298,-3.8557,mol/L,215.208,2.9674000000000014,63.37,1.0,3.0
COc1c(C)c(C=O)ccc1O,water,298,-1.3755,mol/L,166.176,1.5217199999999997,46.53,1.0,3.0
CC(C)OC(=O)c1ccc(N)cc1,water,298,-2.6099,mol/L,179.219,1.8339999999999999,52.32,1.0,3.0
CC(C)OC(=O)C(O)(c1ccc(Br)cc1)c2ccc(Br)cc2,water,298,-6.6316,mol/L,428.12000000000006,4.3991000000000025,46.53,1.0,3.0
C[Si](C)(C)CCCN,water,298,-1.9509,mol/L,131.295,1.6733999999999998,26.02,1.0,1.0
NNC(=N)N[N+]([O-])=O,water,298,-1.6458,mol/L,119.08399999999999,-1.8342299999999998,117.07,4.0,4.0
OCc1ccc(I)cc1,water,298,-2.746,mol/L,234.036,1.7834999999999999,20.23,1.0,1.0
CC1CCCC(=NO)C1=NO,water,298,-1.5916,mol/L,156.185,1.4667999999999999,65.18,2.0,4.0
CC1CCC(=C(C1)NO)N=O,water,298,-1.6622,mol/L,156.18499999999997,1.7631999999999999,61.69,2.0,4.0
CC(C)C1CCC(=NO)C(C1)=NO,water,298,-2.3903,mol/L,184.239,2.1029,65.18,2.0,4.0
C[C@H](NC(N)=O)C([O-])=O,water,298,-0.9656,mol/L,131.111,-2.206899999999999,95.25,2.0,3.0
Cc1cccc2c3cc4ccccc4cc3cc(C)c12,water,298,-7.9743,mol/L,256.348,5.763040000000004,0.0,0.0,0.0
ON=C1CCCCCCCCC1=NO,water,298,-2.5813,mol/L,198.266,2.781200000000001,65.18,2.0,4.0
COC(=O)C1=CO[C@@H](O[C@@H]2O[C@H](CO)[C@@H](O)[C@H](O)[C@H]2O)[C@@H]3[C@@H](C)[C@@H](O)C[C@H]13,water,298,-0.5911,mol/L,390.3850000000001,-2.1507999999999976,155.14000000000001,5.0,10.0
CN(C)C(=O)NC1CC2CC1C3CCCC23,water,298,-3.1709,mol/L,222.33199999999994,2.0822999999999996,32.34,1.0,1.0
CCS[S](=O)CC,water,298,-0.0993,mol/L,138.257,1.4231,17.07,0.0,2.0
CC(C)(C)NCC(O)c1ccc(O)c(CO)c1,water,298,-1.2298,mol/L,239.315,1.3059999999999998,72.72,4.0,4.0
COC1CCCC(C)O1,water,298,-0.5921,mol/L,130.187,1.5479,18.46,0.0,2.0
CC1(C)OC2(C)CCC1CC2=O,water,298,-0.9249,mol/L,168.236,1.9231,26.3,0.0,2.0
CNC(=O)N(C)c1sc2ccccc2n1,water,298,-3.5741,mol/L,221.28500000000003,2.0719,45.230000000000004,1.0,3.0
CCCCC(O)C(C)C,water,298,-1.8122,mol/L,130.23099999999997,2.1935000000000002,20.23,1.0,1.0
CCC(C)CC(O)CC,water,298,-1.8602,mol/L,130.23099999999997,2.1935000000000002,20.23,1.0,1.0
CCC(O)CCC(C)C,water,298,-1.9272,mol/L,130.231,2.1935000000000002,20.23,1.0,1.0
OC(=O)C1CCC([Se]1)C(O)=O,water,298,-0.545,mol/L,223.086,0.23060000000000008,74.6,2.0,2.0
CCO[P](=S)(OCC)Oc1cc(on1)c2ccccc2,water,298,-5.2172,mol/L,313.315,4.017900000000003,53.72,0.0,6.0
CC(C)CC(=O)Oc1ccc(cc1)[N+]([O-])=O,water,298,-4.3945,mol/L,223.22799999999998,2.5463000000000005,69.44,0.0,4.0
OCc1ccccc1Br,water,298,-2.158,mol/L,187.03599999999997,1.9413999999999998,20.23,1.0,1.0
CCCN(CCC)c1c(cc(cc1[N+]([O-])=O)[S](N)(=O)=O)[N+]([O-])=O,water,298,-5.1416,mol/L,346.3650000000001,1.7768000000000002,149.67999999999998,1.0,7.0
CC(=O)Nc1ccc(cc1)[S](=O)(=O)Nc2ccccn2,water,298,-3.7162,mol/L,291.332,1.8407999999999998,88.16,2.0,4.0
CCc1nc2nc(N)nc(N)c2nc1CC,water,298,-3.2671,mol/L,218.26399999999998,0.7089999999999999,103.6,2.0,6.0
CNc1ncc2nccnc2n1,water,298,-1.7124,mol/L,161.16799999999998,0.4614999999999998,63.59,1.0,5.0
COc1cc(NC(=O)c2cccnc2)c3ncccc3c1,water,298,-4.4461,mol/L,279.29900000000004,2.8907000000000007,64.11,1.0,4.0
N[C@@H]([C@H](O)[C@@H](O)COC(N)=O)C(=O)N[C@@H]([C@H]1O[C@H](C(O)C1O)N2C=C(CO)C(=O)NC2=O)C(O)=O,water,298,0.2946,mol/L,507.4090000000002,-6.638099999999997,309.97999999999996,10.0,14.0
COc1cc(C=O)cc(Cl)c1O,water,298,-2.8747,mol/L,186.59399999999997,1.8667000000000002,46.53,1.0,3.0
Brc1ccc2COC(=O)c2c1,water,298,-2.6472,mol/L,213.02999999999994,2.1195,26.3,0.0,2.0
CCC(C)C(O)C(C)CC,water,298,-2.5108,mol/L,144.25799999999995,2.4395000000000007,20.23,1.0,1.0
CC(C)C(C)CO,water,298,-0.3699,mol/L,102.17699999999999,1.2708,20.23,1.0,1.0
Oc1c(Cl)cc(Cl)cc1Cc2ccccc2,water,298,-4.6399,mol/L,253.128,4.289800000000002,20.23,1.0,1.0
Clc1ccc2COC(=O)c2c1,water,298,-2.4817,mol/L,168.57899999999998,2.0103999999999997,26.3,0.0,2.0
CC(C)Oc1cc(N2N=C(OC2=O)C(C)(C)C)c(Cl)cc1Cl,water,298,-5.693,mol/L,345.226,4.217000000000004,57.26,0.0,5.0
CCOc1ccc(C(O)=O)c2ccccc12,water,298,-4.1122,mol/L,216.236,2.936700000000001,46.53,1.0,2.0
CCC(C)(O)C(O)c1ccccc1,water,298,-1.7244,mol/L,180.24699999999999,1.881,40.46,2.0,2.0
CC(C)C[C@@H](NC(C)=O)C(O)=O,water,298,-1.3301,mol/L,173.212,0.6218000000000001,66.4,2.0,2.0
CCC(C)C(NC(C)=O)C(O)=O,water,298,-0.6205,mol/L,173.212,0.6218000000000001,66.4,2.0,2.0
COC[C@H](N)C(O)=O,water,298,0.6524,mol/L,119.11999999999999,-0.9552999999999991,72.55000000000001,2.0,3.0
BrC1=CN=CNC1=O,water,298,-0.4471,mol/L,174.985,0.5323999999999998,45.75,1.0,2.0
OC1=C(C#N)C(=O)C=C(Cl)N1,water,298,-1.2319,mol/L,170.55499999999998,0.6055799999999999,76.88,2.0,3.0
CC(CO)C(=O)O[C@H]1CC(=C/CCC(=C/[C@H]2OC(=O)C(=C)[C@H]12)/CO)/C,water,298,-2.2436,mol/L,350.4110000000001,1.6732999999999998,93.06000000000002,2.0,6.0
CCNC(C)C,water,298,1.0597,mol/L,87.166,1.0043,12.03,1.0,1.0
Clc1c(Cl)c(Cl)c2ccccc2c1Cl,water,298,-7.7954,mol/L,265.954,5.453400000000001,0.0,0.0,0.0
CCCCCCCCCCCCOC(=O)c1ccc(N)cc1,water,298,-7.8,mol/L,305.462,5.346500000000004,52.32,1.0,3.0
CCCCCN(N=Cc1oc(cc1)[N+]([O-])=O)C(N)=O,water,298,-2.8971,mol/L,268.273,2.0926,114.97,1.0,5.0
ClC(Cl)(Cl)CC(=C)c1ccccc1,water,298,-4.2822,mol/L,235.541,4.460100000000002,0.0,0.0,0.0
COc1ccc2n(c(C)c(CC(O)=O)c2c1)C(=O)\C=C\c3ccccc3,water,298,-5.5433,mol/L,349.386,3.939020000000003,68.53,1.0,4.0
CCCCCO[P](=O)(OCC)OCC,water,298,-1.4757,mol/L,224.23699999999997,3.3743000000000025,44.760000000000005,0.0,4.0
CCC(C)C(NC(C)=O)C(O)=O,water,298,-0.5981,mol/L,173.212,0.6218000000000001,66.4,2.0,2.0
CC(O)C(C)(C)C,water,298,-0.6238,mol/L,102.17699999999999,1.4133,20.23,1.0,1.0
CCCCCC(O)CC,water,298,-2.0171,mol/L,130.23099999999997,2.3376,20.23,1.0,1.0
CC[S](=O)(=O)CCS[P](=S)(OC)OC,water,298,-2.5415,mol/L,278.357,1.6716,52.60000000000001,0.0,6.0
COCC(C)OCC(C)OCC(C)O,water,298,0.6855,mol/L,206.28199999999998,0.8238000000000001,47.92,1.0,4.0
CN1C(=O)ON(C1=O)c2ccc(Cl)c(Cl)c2,water,298,-5.2407,mol/L,261.064,1.4359999999999997,57.14,0.0,5.0
CCCOc1ccc(NC(C)=O)cc1,water,298,-3.0557,mol/L,193.24599999999998,2.4338000000000006,38.33,1.0,2.0
CC1(C)C2CCC1(C)C(=O)C2CO,water,298,-0.215,mol/L,182.263,1.6201,37.3,1.0,2.0
CN(C(N)=O)c1ccccc1C,water,298,-0.4032,mol/L,164.20799999999997,1.5099200000000002,46.33,1.0,1.0
CCCCCCO[N+]([O-])=O,water,298,-3.1265,mol/L,147.174,1.775,52.37,0.0,3.0
CCN(C(N)=O)c1ccccc1C,water,298,-0.2096,mol/L,178.23499999999999,1.9000200000000003,46.33,1.0,1.0
OC(=O)CC1=CNC(=O)NC1=O,water,298,-1.6287,mol/L,170.124,-1.3097,103.01999999999998,3.0,3.0
CCCC(O)(CCC)C(O)c1ccccc1,water,298,-2.648,mol/L,222.328,3.0513000000000012,40.46,2.0,2.0
CCCCC(O)(CCCC)C(O)c1ccccc1,water,298,-3.2225,mol/L,250.382,3.831500000000003,40.46,2.0,2.0
Cc1cc(C)c(C)c(C)n1,water,298,-1.3069,mol/L,135.20999999999998,2.3152800000000004,12.89,0.0,1.0
C[C@H]1O[C@H](C[C@H](O)[C@@H]1O)O[C@H]2[C@@H](O)C[C@@H](O[C@@H]2C)O[C@H]3[C@@H](O)C[C@@H](O[C@@H]3C)O[C@H]4CC[C@@]5(C)[C@H](CC[C@@H]6[C@@H]5C[C@@H](O)[C@]7(C)[C@H](CC[C@]67O)C8=CC(=O)OC8)C4,water,298,-4.0811,mol/L,780.949,2.2181000000000015,203.05999999999997,6.0,14.0
Clc1ccc(NC(NC=O)C(Cl)(Cl)Cl)cc1Cl,water,298,-3.3228,mol/L,336.433,3.847600000000001,41.129999999999995,2.0,2.0
S=C1NSC(=S)N1,water,298,-1.7618,mol/L,150.25300000000001,1.86328,31.58,2.0,3.0
CSC1=NN=C(C(=O)N1N)C(C)(C)C,water,298,-2.3098,mol/L,214.29399999999998,0.3714999999999997,73.8,1.0,6.0
CC1CC(C)(C)c2cc(C(C)=O)c(C)cc2C1(C)C,water,298,-5.3154,mol/L,258.4049999999999,4.792620000000005,17.07,0.0,1.0
OC(=O)c1cccc(C(O)=O)c1[N+]([O-])=O,water,298,-1.9901,mol/L,211.12899999999996,0.9911999999999999,117.74000000000001,2.0,4.0
CC(C#C)N(C(=O)CCl)c1ccccc1,water,298,-2.6468,mol/L,221.687,2.2801,20.310000000000002,0.0,1.0
CC(Cl)C(C)(C)O,water,298,-0.2926,mol/L,122.59499999999998,1.3846,20.23,1.0,1.0
Oc1cc(c2ccccc2)c(cc1[N+]([O-])=O)[N+]([O-])=O,water,298,-4.4611,mol/L,260.205,2.8756000000000013,106.50999999999999,1.0,5.0
CCO[P](=O)(OCC)N=C1SCS1,water,298,-0.6835,mol/L,241.274,2.961000000000001,47.89,0.0,5.0
N#CSCSc1sc2ccccc2n1,water,298,-3.2803,mol/L,238.36200000000002,3.5601800000000017,36.68,0.0,5.0
CCCC(O)CC(C)C,water,298,-1.9079,mol/L,130.23099999999997,2.1935000000000002,20.23,1.0,1.0
[O-]C(=O)c1cc(Br)ccc1Cl,water,298,-1.952,mol/L,234.456,1.466,40.129999999999995,0.0,2.0
CN1C(=O)COc2ccccc12,water,298,-2.1445,mol/L,163.176,1.0417999999999998,29.540000000000003,0.0,2.0
CC(=O)OC(c1ccc(Cl)c(Cl)c1)C(Cl)(Cl)Cl,water,298,-3.8279,mol/L,336.429,4.967800000000001,26.3,0.0,2.0
CCC(O)CNCC(O)CC,water,298,0.7925,mol/L,161.245,0.11779999999999952,52.489999999999995,3.0,3.0
CCCC(C)O[N+]([O-])=O,water,298,-2.4809,mol/L,133.147,1.3833,52.37,0.0,3.0
[Cl-].C[NH+](C)C(CSC(N)=O)CSC(N)=O,water,298,-0.1364,mol/L,273.811,-3.8726999999999974,90.62,3.0,4.0
Cc1snnc1C(O)=O,water,298,-0.4598,mol/L,144.155,0.5447199999999999,63.080000000000005,1.0,4.0
CC(O)C(O)c1cnc2NC(=NC(=O)c2n1)N,water,298,-2.5301,mol/L,237.219,-1.2905,138.01,4.0,7.0
CCOC(=O)C(C)N(C(=O)c1ccccc1)c2ccc(Cl)c(Cl)c2,water,298,-4.2627,mol/L,366.24400000000014,4.591800000000004,46.61,0.0,3.0
CO[P](=O)(OC)OC(=C/Cl)/c1cc(Cl)c(Cl)cc1Cl,water,298,-4.5221,mol/L,365.96400000000006,5.6015000000000015,44.760000000000005,0.0,4.0
CCOc1ccc(NC(=O)CO)cc1,water,298,-2.1058,mol/L,195.218,1.0161,58.56,2.0,3.0
OC(=O)C(c1ccccc1C(O)=O)c2ccccc2C(O)=O,water,298,-2.4998,mol/L,300.266,2.2995,111.9,3.0,3.0
C[S](=O)(=O)N(SC(Cl)(Cl)C(F)(Cl)Cl)c1ccccc1,water,298,-5.1485,mol/L,387.112,4.333100000000003,37.38,0.0,3.0
OC(=O)CC(=O)c1ccccc1[N+]([O-])=O,water,298,-1.8434,mol/L,209.15699999999998,1.2522,97.50999999999999,1.0,4.0
CNC(=O)Oc1cccc2OC(C)(C)Oc12,water,298,-2.9338,mol/L,223.22799999999995,1.9121,56.790000000000006,1.0,4.0
COc1ccc(C[C@@H]2NC[C@@H](O)[C@@H]2OC(C)=O)cc1,water,298,-1.6075,mol/L,265.30899999999997,0.5020999999999994,67.78999999999999,2.0,5.0
[Na+].[O-]C(=O)C(F)(F)C(F)F,water,298,-0.8829,mol/L,168.021,-3.3592999999999984,40.129999999999995,0.0,2.0
CCNc1nc(NC(C)C(C)C)nc(SC)n1,water,298,-3.7082,mol/L,255.391,2.4817,62.730000000000004,2.0,6.0
CC(C)Nc1nc(Cl)nc(NC2CC2)n1,water,298,-3.5185,mol/L,227.699,1.9195999999999998,62.730000000000004,2.0,5.0
CC(C)=C[C@H]1[C@H](C(=O)OC2CC(=O)C(=C2C)CC#C)C1(C)C,water,298,-4.5746,mol/L,300.398,3.449200000000002,43.370000000000005,0.0,3.0
CCn1cnc2N(C)C(=O)N(C)C(=O)c12,water,298,-0.7544,mol/L,208.22099999999998,-0.5464000000000002,61.82,0.0,6.0
CN(C)C(=O)Oc1nc(nc(C)c1C)N(C)C,water,298,-1.9457,mol/L,238.29099999999997,1.2198399999999998,58.56000000000001,0.0,5.0
CNC(=O)O\N=C(SC)\C(=O)N(C)C,water,298,0.1062,mol/L,219.266,0.10709999999999997,70.99999999999999,1.0,5.0
CN1C(=O)N(C)c2ncn(CCCO)c2C1=O,water,298,-0.1551,mol/L,238.24699999999993,-1.1839000000000002,82.05000000000001,1.0,7.0
CCC(CO)(CO)COCC(CC)(CO)CO,water,298,-0.9836,mol/L,250.33499999999992,-0.2350000000000002,90.15,4.0,5.0
[H+].[Cl-].CNC(=O)Oc1cccc(c1)N=CN(C)C,water,298,0.5037,mol/L,257.721,-1.2572999999999988,53.93,1.0,3.0
CCO[P](=S)(OCC)Oc1cc(C)nc(n1)N(CC)CC,water,298,-4.9242,mol/L,333.3940000000001,3.307520000000002,56.71,0.0,7.0
CO[P](=O)(OC)OC1=C(Cl)C2C=CCC12,water,298,-2.0011,mol/L,250.618,3.060200000000002,44.760000000000005,0.0,4.0
COC(=O)NC(=S)Nc1ccccc1NC(=S)NC(=O)OC,water,298,-4.1097,mol/L,342.4020000000001,1.7921999999999998,100.72000000000001,4.0,6.0
CC(C)(CCC(C)(C)CC(O)=O)CC(O)=O,water,298,-3.1319,mol/L,230.30399999999997,2.7684000000000006,74.6,2.0,2.0
CCCCCCOC(=O)c1cccnc1,water,298,-2.6538,mol/L,207.27300000000002,2.8187000000000015,39.19,0.0,3.0
O[P](O)(=O)CN(CCCCCCN(C[P](O)(O)=O)C[P](O)(O)=O)C[P](O)(O)=O,water,298,-1.5161,mol/L,492.2320000000001,-0.30840000000000045,236.59999999999997,8.0,6.0
CN(C)c1[nH]c2cncnc2n1,water,298,-1.3885,mol/L,163.18399999999997,0.4188999999999999,57.7,1.0,4.0
Cc1ncc2nc(C)c(C)nc2n1,water,298,-1.1442,mol/L,174.207,1.34506,51.56,0.0,4.0
NC(=O)NN=C[C@H](O)[C@@H](O)[C@H](O)[C@H](O)CO,water,298,-1.0041,mol/L,237.21200000000002,-3.9236,168.63,7.0,7.0
OC(=O)C1=CNC(=O)NC1=O,water,298,-1.9381,mol/L,156.09699999999998,-1.2386000000000001,103.01999999999998,3.0,3.0
CC(C)(NC(=O)c1cc(Cl)cc(Cl)c1)C#C,water,298,-4.2324,mol/L,256.13199999999995,3.1350000000000016,29.1,1.0,1.0
CCO[P](=S)(OCC)Oc1ncn(n1)c2ccccc2,water,298,-3.9049,mol/L,313.319,2.9436000000000018,58.4,0.0,7.0
CC1(C)OC(=O)c2cc3ccccc3cc12,water,298,-2.9844,mol/L,212.24800000000002,3.245300000000002,26.3,0.0,2.0
CC(=O)Nc1ccc(Br)cc1C,water,298,-1.756,mol/L,228.08899999999997,2.7159200000000006,29.1,1.0,1.0
CC(C)COCN(C(=O)CCl)c1c(C)cccc1C,water,298,-3.6822,mol/L,283.79900000000004,3.505340000000002,29.54,0.0,2.0
Cc1occc1C(=O)Nc2ccccc2,water,298,-3.3037,mol/L,201.22500000000002,2.840320000000001,42.24,1.0,2.0
CCCCC(CCC(O)=O)CC(O)=O,water,298,-1.3974,mol/L,202.24999999999997,2.1323,74.6,2.0,2.0
CN1C=Nc2nccnc2C1=O,water,298,-1.0549,mol/L,162.152,-0.2765000000000002,60.67,0.0,5.0
CCCCCC1C(CCC1=O)CC(=O)OC,water,298,-2.9076,mol/L,226.31599999999995,2.725100000000001,43.370000000000005,0.0,3.0
O=C1N=CNc2nc(c3ccccc3)c(nc12)c4ccccc4,water,298,-3.1766,mol/L,300.321,3.0471000000000013,71.53,1.0,4.0
Cc1cccc(I)c1O,water,298,-1.8378,mol/L,234.036,2.3052200000000007,20.23,1.0,1.0
Clc1ccc(Cl)c(Oc2ccccc2)c1,water,298,-4.9703,mol/L,239.10100000000003,4.785700000000002,9.23,0.0,1.0
Clc1ccc(Oc2cc(Cl)cc(Cl)c2)cc1,water,298,-5.5201,mol/L,273.546,5.4391000000000025,9.23,0.0,1.0
CCO[P](=S)(OCC)SCCl,water,298,-3.5924,mol/L,234.70999999999998,3.213400000000002,18.46,0.0,4.0
CCOC(=O)CN1C(=O)Sc2cccc(Cl)c12,water,298,-3.762,mol/L,271.7250000000001,2.2795000000000005,48.3,0.0,5.0
OC(=O)COc1ccc(cc1[N+]([O-])=O)[N+]([O-])=O,water,298,-1.9369,mol/L,242.14299999999997,0.9663999999999999,132.81,1.0,6.0
CC(C)c1ccccc1C,water,298,-3.7595,mol/L,134.22199999999995,3.118420000000002,0.0,0.0,0.0
CCCCC(CC)COC(=O)COc1ccc(Cl)cc1Cl,water,298,-7.0122,mol/L,333.255,5.131800000000005,35.53,0.0,3.0
CCC\C=C\C,water,298,-3.2262,mol/L,84.16199999999999,2.3626000000000005,0.0,0.0,0.0