Solute,Solvent,Temperature_K,Solubility,Units,MW,LogP,TPSA,HBD,HBA
CC(C)CC(O)CC(C)C,water,298,-2.5108,mol/L,144.25799999999995,2.4395000000000007,20.23,1.0,1.0
CC(C)CC(=O)CC(C)C,water,298,-1.7314,mol/L,142.242,2.6477000000000013,17.07,0.0,1.0
CC(C)CC(C)OC(C)=O,water,298,-2.0451,mol/L,144.21399999999997,1.9841,26.3,0.0,2.0
CC1CCCCC1,water,298,-3.8459,mol/L,98.18900000000001,2.5866000000000007,0.0,0.0,0.0
Cc1ccncc1,water,298,1.0309,mol/L,93.12899999999999,1.39002,12.89,0.0,1.0
NC1CCCCC1,water,298,1.0036,mol/L,99.177,1.2778,26.02,1.0,1.0
Sc1ccccc1,water,298,-2.1204,mol/L,110.18099999999997,1.9752999999999996,0.0,1.0,1.0
Cc1cccnc1,water,298,1.0309,mol/L,93.129,1.39002,12.89,0.0,1.0
CN1CCOCC1,water,298,0.995,mol/L,101.149,-0.05160000000000009,12.47,0.0,2.0
Cc1ccccn1,water,298,1.0309,mol/L,93.129,1.39002,12.89,0.0,1.0
CC1CNCCN1,water,298,0.6378,mol/L,100.165,-0.4323000000000001,24.06,2.0,2.0
Cc1cnccn1,water,298,1.0263,mol/L,94.11699999999999,0.7850199999999998,25.78,0.0,2.0
CCCCOC(=O)CCC,water,298,-2.4601,mol/L,144.21399999999997,2.1298000000000004,26.3,0.0,2.0
CCCCOC(=O)CCCCCCCCC(=O)OCCCC,water,298,-3.8955,mol/L,314.46600000000007,4.7938000000000045,52.60000000000001,0.0,4.0
CCOCCOC(=O)CCCCC(=O)OCCOCC,water,298,-2.065,mol/L,290.356,1.7062,71.06,0.0,6.0
CCC#CC(C)O,water,298,-0.4121,mol/L,98.14499999999997,0.7806,20.23,1.0,1.0
CC(C)COC=C,water,298,-1.5236,mol/L,100.16099999999999,1.8025,9.23,0.0,1.0
CN(C)CCCN,water,298,0.9906,mol/L,102.18100000000001,-0.10320000000000007,29.259999999999998,1.0,2.0
CC(C)OCCO,water,298,0.9823,mol/L,104.149,0.4037,29.46,1.0,2.0
BrCCCBr,water,298,-2.0747,mol/L,201.889,2.1663000000000006,0.0,0.0,0.0
CCCC=C,water,298,-2.6757,mol/L,70.135,1.9725,0.0,0.0,0.0
CC\C=C/C,water,298,-2.5384,mol/L,70.135,1.9725,0.0,0.0,0.0
CCCCN,water,298,1.1359,mol/L,73.139,0.7452000000000001,26.02,1.0,1.0
OCCC#N,water,298,1.1483,mol/L,71.07900000000001,-0.10762000000000005,44.019999999999996,1.0,2.0
CCCCS,water,298,-2.1792,mol/L,90.19099999999999,1.7163,0.0,1.0,1.0
CNCCO,water,298,1.1243,mol/L,75.11099999999999,-0.8019000000000001,32.26,2.0,2.0
NNCCO,water,298,1.1186,mol/L,76.09899999999999,-1.5579999999999998,58.28,3.0,3.0
COCCO,water,298,1.1186,mol/L,76.095,-0.37489999999999996,29.46,1.0,2.0
CCNCC,water,298,1.1359,mol/L,73.139,0.6157999999999999,12.03,1.0,1.0
C=COC=C,water,298,-0.9597,mol/L,70.09100000000001,1.29,9.23,0.0,1.0
C1CCOC1,water,298,1.142,mol/L,72.107,0.7968,9.23,0.0,1.0
CC(C)(C)OOC(C)(C)C,water,298,-3.165,mol/L,146.23,2.531600000000001,18.46,0.0,2.0
OC(=O)\C=C\C(O)=O,water,298,0.5794,mol/L,116.07199999999999,-0.28819999999999985,74.6,2.0,2.0
CC(C)COC(C)=O,water,298,-1.2657,mol/L,116.15999999999998,1.2055,26.3,0.0,2.0
CC(C)=NNC(N)=O,water,298,-0.2674,mol/L,115.136,0.050500000000000156,67.47999999999999,2.0,2.0
CCCCCCCCCC(=O)OCC,water,298,-4.1006,mol/L,200.32199999999997,3.6902000000000026,26.3,0.0,2.0
CCOC(=O)CCCCCCCCC(=O)OCC,water,298,-3.5091,mol/L,258.3579999999999,3.2334000000000023,52.60000000000001,0.0,4.0
CC(C)CCOC=O,water,298,-1.5206,mol/L,116.15999999999998,1.2055,26.3,0.0,2.0
COCCOC(C)=O,water,298,0.9276,mol/L,118.13199999999999,0.19590000000000019,35.53,0.0,3.0
BrCCCCBr,water,298,-2.7902,mol/L,215.916,2.556400000000001,0.0,0.0,0.0
ClCCCCCl,water,298,-0.92,mol/L,127.01400000000001,2.2442,0.0,0.0,0.0
ClC/C=C/CCl,water,298,-2.1675,mol/L,124.998,2.0202,0.0,0.0,0.0
CCCCCN,water,298,1.0597,mol/L,87.16600000000001,1.1353,26.02,1.0,1.0
CCCCC=O,water,298,-0.867,mol/L,86.13399999999999,1.3755,17.07,0.0,1.0
OCCCCO,water,298,1.0452,mol/L,90.122,-0.24880000000000008,40.46,2.0,2.0
OCC#CCO,water,298,0.6379,mol/L,86.08999999999999,-1.0256,40.46,2.0,2.0
CCCCCS,water,298,-2.8248,mol/L,104.218,2.1064000000000003,0.0,1.0,1.0
COCCOC,water,298,1.0452,mol/L,90.122,0.2792,18.46,0.0,2.0
ClCCOC=C,water,298,-2.3951,mol/L,106.55199999999999,1.3853,9.23,0.0,1.0
CCOCCO,water,298,1.0452,mol/L,90.122,0.015200000000000047,29.46,1.0,2.0
C1CNCCN1,water,298,1.0648,mol/L,86.138,-0.8208,24.06,2.0,2.0
c1ccncc1,water,298,1.1018,mol/L,79.10199999999998,1.0816,12.89,0.0,1.0
C1COCCN1,water,298,1.0599,mol/L,87.122,-0.3938000000000001,21.259999999999998,1.0,2.0
OC(=O)CCCC(O)=O,water,298,1.0832,mol/L,132.115,0.3259,74.6,2.0,2.0
CC[C@H](C)[NH2+][C@H](C)CC,water,298,-1.769,mol/L,130.255,1.1468,16.61,1.0,0.0
CC(O)CNCC(C)O,water,298,0.81,mol/L,133.191,-0.6623999999999999,52.489999999999995,3.0,3.0
OC(=O)COCC(O)=O,water,298,0.4927,mol/L,134.087,-0.8277999999999999,83.83000000000001,2.0,3.0
CCCCCCCC(=O)OC,water,298,-3.3904,mol/L,158.24099999999999,2.5199000000000007,26.3,0.0,2.0
CCCCCCC(O)=O,water,298,-1.6646,mol/L,130.18699999999998,2.0414,37.3,1.0,1.0
CCOCCOC(C)=O,water,298,0.2716,mol/L,132.159,0.5860000000000001,35.53,0.0,3.0
OC(=O)CCSCCC(O)=O,water,298,-0.6807,mol/L,178.209,0.669,74.6,2.0,3.0
OC(=O)CCCCCCCCC(O)=O,water,298,-2.3059,mol/L,202.24999999999997,2.2763999999999998,74.6,2.0,2.0
[O-][N+](=O)OCCOCCOCCO[N+]([O-])=O,water,298,-1.561,mol/L,240.16799999999995,-0.5638000000000001,123.20000000000002,0.0,8.0
CCCCOC=C,water,298,-1.5236,mol/L,100.16099999999999,1.9465999999999999,9.23,0.0,1.0
NCCNCCN,water,298,0.9864,mol/L,103.16900000000001,-1.506599999999999,64.07,3.0,3.0
NCCNCCO,water,298,0.9823,mol/L,104.15299999999999,-1.4729999999999996,58.28,3.0,3.0
OCCNCCO,water,298,0.9782,mol/L,105.137,-1.4393999999999998,52.489999999999995,3.0,3.0
OCCOCCO,water,298,0.9742,mol/L,106.121,-1.0124,49.69,2.0,3.0
OCCSCCO,water,298,0.913,mol/L,122.189,-0.2958,40.46,2.0,3.0
C1CCCNCC1,water,298,0.234,mol/L,99.17699999999999,1.15,12.03,1.0,1.0
CC(=O)OCCOC(C)=O,water,298,0.0857,mol/L,146.142,0.11260000000000003,52.6,0.0,4.0
CCCCCCC=O,water,298,-1.9607,mol/L,114.18799999999999,2.1557000000000004,17.07,0.0,1.0
CCCCNCCO,water,298,0.9311,mol/L,117.19199999999998,0.3683999999999999,32.26,2.0,2.0
CCCCOCCO,water,298,0.9275,mol/L,118.17599999999999,0.7953999999999999,29.46,1.0,2.0
COCCOCCO,water,298,0.9203,mol/L,120.148,-0.3583,38.69,1.0,3.0
CCCCCCCCC,water,298,-5.7657,mol/L,128.259,3.7569000000000026,0.0,0.0,0.0
CCCCCCCCCl,water,298,-4.4829,mol/L,148.67700000000002,3.5857000000000028,0.0,0.0,0.0
CCCCCCCCN,water,298,-2.8104,mol/L,129.247,2.3056,26.02,1.0,1.0
CCOCCOCCO,water,298,0.8723,mol/L,134.175,0.031799999999999884,38.69,1.0,3.0
ClCCOCOCCCl,water,298,-1.3461,mol/L,173.039,1.4547,18.46,0.0,2.0
COCCOCCOC,water,298,0.8723,mol/L,134.175,0.29580000000000006,27.69,0.0,3.0
CCCCOCCOC(C)=O,water,298,-1.2504,mol/L,160.213,1.3662,35.53,0.0,3.0
CCOCCOCCOC(C)=O,water,298,0.754,mol/L,176.212,0.6025999999999998,44.760000000000005,0.0,4.0
NCCNCCNCCN,water,298,1.5136,mol/L,146.238,-1.916999999999998,76.1,4.0,4.0
ClCCOCCOCCCl,water,298,-0.9955,mol/L,187.06599999999997,1.4971999999999999,18.46,0.0,2.0
OCCOCCOCCO,water,298,0.8234,mol/L,150.174,-0.9958000000000002,58.92,2.0,4.0
CCCCOCCOCCO,water,298,0.7899,mol/L,162.22899999999998,0.812,38.69,1.0,3.0
COCCOCCOCCO,water,298,0.7846,mol/L,164.201,-0.34170000000000006,47.92,1.0,4.0
CCOCCOCCOCC,water,298,0.7899,mol/L,162.22899999999998,1.076,27.69,0.0,3.0
CCOCCOCCOCCO,water,298,0.749,mol/L,178.22799999999998,0.04839999999999983,47.92,1.0,4.0
NCCNCCNCCNCCN,water,298,1.5381,mol/L,189.307,-2.3273999999999972,88.13,5.0,5.0
CCCCCCOCCOCCO,water,298,-1.049,mol/L,190.28299999999996,1.5922,38.69,1.0,3.0
OCCOCCOCCOCCO,water,298,0.7117,mol/L,194.22699999999998,-0.979199999999999,68.15,2.0,5.0
CCCCCCCCCCCCCCO,water,298,-6.0502,mol/L,214.39299999999994,4.679800000000005,20.23,1.0,1.0
CCCCCCCCCCCCCCCCCCCCCC(O)=O,water,298,-7.3281,mol/L,340.59200000000004,7.892900000000008,37.3,1.0,1.0
CCCCCCCCCCCCCCCCCCO,water,298,-8.3908,mol/L,270.50099999999986,6.240200000000008,20.23,1.0,1.0
CCCCCCCCCCCCCCCCCCCC,water,298,-8.1724,mol/L,282.5559999999999,8.048000000000007,0.0,0.0,0.0
CNC(=O)Oc1ccccc1OC(C)C,water,298,-2.0512,mol/L,209.24499999999998,2.192,47.56,1.0,3.0
CC=C,water,298,-2.3231,mol/L,42.080999999999996,1.1923000000000001,0.0,0.0,0.0
CC(C)(O)C=C,water,298,1.0648,mol/L,86.134,0.9433,20.23,1.0,1.0
CC(C)(O)C#C,water,298,1.0751,mol/L,84.118,0.3905,20.23,1.0,1.0
FC1(F)C(F)(F)C(F)(F)C1(F)F,water,298,-3.9276,mol/L,200.02799999999996,2.5412,0.0,0.0,0.0
CN(C)[P](F)(=O)N(C)C,water,298,0.8121,mol/L,154.125,1.1872,23.550000000000004,0.0,1.0
OC(=O)C1C(C(O)=O)C2(Cl)C(=C(Cl)C1(Cl)C2(Cl)Cl)Cl,water,298,-2.0457,mol/L,388.845,3.2335000000000003,74.6,2.0,2.0
CC(N)(CO)CO,water,298,0.9782,mol/L,105.13699999999999,-1.3116,66.48,3.0,3.0
CCC(N)(CO)CO,water,298,0.9239,mol/L,119.16399999999997,-0.9215000000000002,66.48,3.0,3.0
CCC(CC)(CO)CO,water,298,0.1798,mol/L,132.203,0.7773999999999999,40.46,2.0,2.0
OCC(CO)(CO)CO,water,298,-0.2749,mol/L,136.147,-2.058,80.92,4.0,4.0
CCCCCCCCO[P](=O)(Oc1ccccc1)Oc2ccccc2,water,298,-6.4131,mol/L,362.40600000000006,6.629600000000007,44.760000000000005,0.0,4.0
CO[P](=O)(Oc1ccccc1)Oc2ccccc2,water,298,-2.1209,mol/L,264.217,3.898900000000002,44.760000000000005,0.0,4.0
ClCCO[P](=O)(OCCCl)OCCCl,water,298,-1.6105,mol/L,285.491,2.8607000000000014,44.760000000000005,0.0,4.0
CCNC(=O)CS[P](=S)(OC)OC,water,298,-1.4567,mol/L,243.28999999999996,1.373,47.56,1.0,5.0
CNC(=O)O\N=C\C(C)(C)SC,water,298,-1.4991,mol/L,190.26799999999997,1.4698,50.69,1.0,4.0
CC(=O)CO,water,298,1.1303,mol/L,74.079,-0.43229999999999996,37.3,1.0,2.0
COC(C)=C,water,298,1.142,mol/L,72.107,1.1664,9.23,0.0,1.0
FC(F)=C(F)F,water,298,-2.8001,mol/L,100.01400000000001,1.991,0.0,0.0,0.0
CC1(C)N(CO)C(=O)NC1=O,water,298,0.8009,mol/L,158.15699999999998,-0.7334,69.64,2.0,3.0
Clc1ccc(cc1)[S](=O)(=O)c2cc(Cl)c(Cl)cc2Cl,water,298,-6.6594,mol/L,356.057,5.133000000000001,34.14,0.0,2.0
CCC(C)C(O)=O,water,298,-0.3559,mol/L,102.13299999999998,1.1171,37.3,1.0,1.0
Nc1ccc(O)c2C(=O)c3ccccc3C(=O)c12,water,298,-3.824,mol/L,239.23,1.7498,80.39,2.0,4.0
O[S](=O)(=O)c1cccc2C(=O)c3c(cccc3[S](O)(=O)=O)C(=O)c12,water,298,0.2572,mol/L,368.3440000000001,0.9554000000000002,142.88,2.0,6.0
Nc1ccc2C(=O)c3ccccc3C(=O)c2c1,water,298,-6.1366,mol/L,223.231,2.0442,60.160000000000004,1.0,3.0
ClC1=C(Cl)C(=O)c2ccccc2C1=O,water,298,-4.453,mol/L,227.046,2.7548000000000012,34.14,0.0,2.0
COCCOC(=O)c1ccccc1C(=O)OCCOC,water,298,-1.5213,mol/L,282.292,1.2930000000000001,71.06,0.0,6.0
CCCCCCCCOC(=O)c1ccccc1C(=O)OCCCCCCCC,water,298,-7.2493,mol/L,390.56400000000036,6.721200000000008,52.60000000000001,0.0,4.0
COc1ccc2C(OC(=O)c2c1OC)C3N(C)CCc4cc5OCOc5cc34,water,298,-4.1065,mol/L,383.4000000000002,2.8732000000000015,66.46000000000001,0.0,7.0
O[C@H]([C@H]1C[C@@H]2CCN1C[C@@H]2C=C)c3ccnc4ccccc34,water,298,-3.0887,mol/L,294.398,3.164600000000002,36.36,1.0,3.0
CCNc1cccc2ccccc12,water,298,-3.1922,mol/L,171.24299999999997,3.271600000000001,12.03,1.0,1.0
CC1(C)N(Cl)C(=O)N(Cl)C1=O,water,298,-2.5955,mol/L,197.021,1.3368,40.620000000000005,0.0,2.0
Oc1ccccc1C(=O)Oc2ccccc2,water,298,-3.1548,mol/L,214.22,2.6114000000000006,46.53,1.0,3.0
ClC1=C(Cl)C(=O)C(=C(Cl)C1=O)Cl,water,298,-2.9928,mol/L,245.87599999999998,2.5166,34.14,0.0,2.0
[O-][N+](=O)c1ccc(Cl)cc1C(F)(F)F,water,298,-3.3533,mol/L,225.55299999999994,3.2670000000000003,43.14,0.0,2.0
CCO[P](=S)(OCC)OC1=NN(C(=O)C=C1)c2ccccc2,water,298,-3.5319,mol/L,340.341,2.908800000000001,62.58,0.0,7.0
Oc1ccc(Nc2ccc(cc2[N+]([O-])=O)[N+]([O-])=O)cc1,water,298,-5.444,mol/L,275.21999999999997,2.9522000000000004,118.54000000000002,2.0,6.0
Oc1cc(cc2ccc(Nc3ccccc3)cc12)[S](O)(=O)=O,water,298,-1.9763,mol/L,315.35,3.535700000000002,86.63,3.0,4.0
CC(C)n1nc(C)cc1OC(=O)N(C)C,water,298,0.6752,mol/L,211.26499999999996,1.83282,47.36000000000001,0.0,4.0
Cc1cc(Cc2cc(C)cc(c2O)C(C)(C)C)c(O)c(c1)C(C)(C)C,water,298,-7.2311,mol/L,340.5070000000001,5.900440000000006,40.46,2.0,2.0
CCCCN(CCN(CCCC)C(=O)N1CCOCC1)C(=O)N2CCOCC2,water,298,0.0985,mol/L,398.5480000000003,2.095000000000001,65.56,0.0,4.0
OC(c1ccccc1)C(=O)c2ccccc2,water,298,-2.8497,mol/L,212.248,2.602900000000001,37.3,1.0,2.0
OC(c1ccccc1)c2ccc(Cl)cc2,water,298,-3.4886,mol/L,218.683,3.421700000000002,20.23,1.0,1.0
C1CCc2ccccc2C1,water,298,-3.4492,mol/L,132.20599999999996,2.5654000000000003,0.0,0.0,0.0
CNc1ccccc1C(O)=O,water,298,-2.8784,mol/L,151.165,1.4264999999999999,49.33,2.0,2.0
Cc1cc(ccc1N)c2ccc(N)c(C)c2,water,298,-2.213,mol/L,212.296,3.1348400000000014,52.04,2.0,2.0
OCCN(CCO)c1ccccc1,water,298,-0.7345,mol/L,181.235,0.47759999999999986,43.7,2.0,3.0
COc1ccc(C=O)cc1OC,water,298,-1.4199,mol/L,166.17599999999996,1.5162999999999998,35.53,0.0,3.0
CCOc1ccc(C=O)cc1OC,water,298,-2.1913,mol/L,180.20299999999997,1.9063999999999999,35.53,0.0,3.0
Oc1ccc(Cl)cc1Cc2ccccc2,water,298,-3.1666,mol/L,218.68300000000002,3.6364000000000027,20.23,1.0,1.0
COC(=O)c1ccc(cc1)C(=O)OC,water,298,-4.0095,mol/L,194.18599999999998,1.2597999999999998,52.60000000000001,0.0,4.0
[nH]1cnc2ncncc12,water,298,0.6194,mol/L,120.11499999999998,0.35290000000000005,54.46,1.0,3.0
S(Sc1sc2ccccc2n1)c3sc4ccccc4n3,water,298,-4.5218,mol/L,332.50000000000006,5.705400000000002,25.78,0.0,6.0
CC(C)=C[C@@H]1[C@@H](C(=O)O[C@H]2CC(=O)C(=C2C)C\C=C/C=C)C1(C)C,water,298,-6.2155,mol/L,328.45200000000006,4.558200000000005,43.370000000000005,0.0,3.0
COC(=O)C(/C)=C/[C@@H]1[C@@H](C(=O)O[C@H]2CC(=O)C(=C2C)C\C=C/C=C)C1(C)C,water,298,-4.6168,mol/L,372.4610000000001,3.711300000000003,69.67000000000002,0.0,5.0
CCOc1cc(C=O)ccc1O,water,298,-1.7703,mol/L,166.176,1.6034,46.53,1.0,3.0
Nc1ccc(cc1)[S](O)(=O)=O,water,298,-1.2051,mol/L,173.19299999999998,0.5155000000000001,80.39,2.0,3.0
CCCOC(=O)c1cc(O)c(O)c(O)c1,water,298,-1.7827,mol/L,212.201,1.3701999999999999,86.99000000000001,3.0,5.0
[O-][N+](=O)N1CN(CN(C1)[N+]([O-])=O)[N+]([O-])=O,water,298,-3.5706,mol/L,222.117,-1.6463999999999996,139.14000000000001,0.0,6.0
CN(C)C(=O)OC1=CC(=O)CC(C)(C)C1,water,298,-0.8477,mol/L,211.26099999999994,1.9576,46.61,0.0,3.0
CC(O)CN(CC(C)O)CC(C)O,water,298,0.6374,mol/L,191.271,-0.5691999999999999,63.93000000000001,3.0,4.0
C1OC1COc2ccccc2,water,298,-1.7964,mol/L,150.177,1.4641999999999997,21.759999999999998,0.0,2.0
N(Nc1ccccc1)c2ccccc2,water,298,-2.921,mol/L,184.242,3.1256000000000013,24.06,2.0,2.0
OCCNc1ccccc1,water,298,-0.4745,mol/L,137.182,1.0908,32.26,2.0,2.0
CCCCC(CC)CCl,water,298,-3.1723,mol/L,148.677,3.441600000000002,0.0,0.0,0.0
CCCCC(CC)C=O,water,298,-2.5059,mol/L,128.21499999999997,2.401700000000001,17.07,0.0,1.0
CCCC(C)C=O,water,298,-1.3774,mol/L,100.16099999999999,1.6215,17.07,0.0,1.0
CCCC(=O)CCC,water,298,-1.5525,mol/L,114.18799999999999,2.1557000000000004,17.07,0.0,1.0
OC(=O)CCC(=O)OOC(=O)CCC(O)=O,water,298,-0.8471,mol/L,234.15999999999997,-0.28260000000000046,127.20000000000002,2.0,6.0
CCCCCCCCC(=O)OCC,water,298,-3.8007,mol/L,186.295,3.3001000000000023,26.3,0.0,2.0
CC(C)=CCCC(=C)C=C,water,298,-4.3861,mol/L,136.238,3.4750000000000023,0.0,0.0,0.0
CNC=O,water,298,1.2286,mol/L,59.068000000000005,-0.6378000000000001,29.1,1.0,1.0
CC(=O)CC(C)(C)O,water,298,0.9349,mol/L,116.15999999999998,0.7363999999999999,37.3,1.0,2.0
O=C1CCC(=O)N1,water,298,0.2962,mol/L,99.089,-0.577,46.17,1.0,2.0
CCCCCC(=O)OCC,water,298,-2.3607,mol/L,144.21399999999997,2.1298000000000004,26.3,0.0,2.0
CCCCCCCCOC(=O)CCCCC(=O)OCCCCCCCC,water,298,-5.6768,mol/L,370.5740000000003,6.354200000000008,52.60000000000001,0.0,4.0
CC(O)CNCCN,water,298,0.9275,mol/L,118.18,-1.0844999999999994,58.28,3.0,3.0
C1COCCO1,water,298,1.055,mol/L,88.106,0.03320000000000001,18.46,0.0,2.0
CC(C)CCOC(C)=O,water,298,-1.8135,mol/L,130.18699999999998,1.5956000000000001,26.3,0.0,2.0
OC(=O)CSCC(O)=O,water,298,0.4255,mol/L,150.155,-0.11120000000000002,74.6,2.0,3.0
CCCCCCCC=O,water,298,-2.3598,mol/L,128.215,2.5458000000000007,17.07,0.0,1.0
CCCCOCCOCCOC(C)=O,water,298,-0.8188,mol/L,204.26599999999996,1.3828,44.760000000000005,0.0,4.0
CCCCCCCCCC,water,298,-6.4372,mol/L,142.286,4.147000000000004,0.0,0.0,0.0
CCCCCCCCC=O,water,298,-3.1708,mol/L,142.242,2.935900000000001,17.07,0.0,1.0
CCCCCCCCCCCCN,water,298,-3.3759,mol/L,185.35499999999996,3.8660000000000023,26.02,1.0,1.0
ClC(Br)Br,water,298,-1.8873,mol/L,208.28,2.2986000000000004,0.0,0.0,0.0
C[As](O)(O)=O,water,298,0.2622,mol/L,139.96999999999997,-1.0298,57.53,2.0,1.0
[Cl-].OC[P+](CO)(CO)CO,water,298,0.322,mol/L,190.563,-4.1927999999999965,80.92,4.0,4.0
CC(C)(N)CO,water,298,1.0499,mol/L,89.13799999999999,-0.2840000000000001,46.25,2.0,2.0
FC(F)(Br)C(F)(F)Br,water,298,-4.9376,mol/L,259.822,2.9618,0.0,0.0,0.0
CC1(C)[C@H](CC[C@@]1(C)C([O-])=O)C([O-])=O,water,298,-1.4207,mol/L,198.218,-1.071299999999999,80.25999999999999,0.0,4.0
CC(=C)[C@@H]1C2OC(=O)C1[C@]3(O)CC4O[C@]45C(=O)O[C@H]2[C@]35C.CC(C)(O)[C@@H]6C7OC(=O)C6[C@]8(O)C[C@H]9O[C@]9%10C(=O)O[C@H]7[C@]8%10C,water,298,-2.1672,mol/L,602.5890000000002,-0.9291999999999958,190.95,3.0,13.0
OCC(CO)(CO)[N+]([O-])=O,water,298,1.1631,mol/L,151.118,-2.0211999999999994,103.82999999999998,3.0,5.0
CC(=O)OC[C@H]1O[C@H](O[C@]2(COC(C)=O)O[C@H](COC(C)=O)[C@@H](OC(C)=O)[C@@H]2OC(C)=O)[C@H](OC(C)=O)[C@@H](OC(C)=O)[C@@H]1OC(C)=O,water,298,-2.8726,mol/L,678.5930000000003,-0.8291999999999908,238.08999999999995,0.0,19.0
NC(=O)OC1(CCCCC1)C#C,water,298,-1.8253,mol/L,167.208,1.4178,52.32000000000001,1.0,2.0
OCC(CO)(CO)COCC(CO)(CO)CO,water,298,-1.9582,mol/L,254.27899999999994,-3.070399999999999,130.61,6.0,7.0
BrCC(Br)CO[P](=O)(OCC(Br)CBr)OCC(Br)CBr,water,298,-4.9405,mol/L,697.613,5.619500000000003,44.760000000000005,0.0,4.0
CCO[P](=O)(OCC)SCCSCC,water,298,-2.1112,mol/L,258.34499999999997,3.653800000000002,35.53,0.0,5.0
CC1(C)CC(=O)CC(=O)C1,water,298,-1.5276,mol/L,140.182,1.3347,34.14,0.0,2.0
CCCC1OC1(CC)C(N)=O,water,298,-1.1745,mol/L,157.21299999999997,0.8193999999999999,55.62,1.0,2.0
NC(=O)NO,water,298,1.1189,mol/L,76.05499999999999,-0.9561000000000002,75.35000000000001,3.0,2.0
CC(=O)C(O)=O,water,298,1.0552,mol/L,88.06199999999998,-0.3399999999999999,54.37,1.0,2.0
CC(=O)/C=C/C1C(=CCCC1(C)C)C,water,298,-3.2587,mol/L,192.30199999999996,3.5141000000000027,17.07,0.0,1.0
CN1C(=O)OC(C)(C)C1=O,water,298,-0.4568,mol/L,143.142,0.37359999999999993,46.61,0.0,3.0
Nc1ccc(cc1)[S](=O)(=O)NC(=O)c2ccccc2,water,298,-2.9501,mol/L,276.317,1.3875,89.25999999999999,2.0,4.0
Cc1ccnc(N[S](=O)(=O)c2ccc(N)cc2)n1,water,298,-3.1168,mol/L,264.31,1.16802,97.97,2.0,5.0
[Ag+].CC([O-])C(O)=O,water,298,-0.4702,mol/L,196.938,-1.1827,60.36,1.0,2.0
BrN1C(=O)CCC1=O,water,298,-1.0831,mol/L,177.98499999999996,0.44530000000000003,37.38,0.0,2.0
ClN1C(=O)CCC1=O,water,298,-0.9702,mol/L,133.534,0.2892,37.38,0.0,2.0
C[C@H](CCC(O)=O)[C@H]1CC[C@H]2[C@@H]3[C@@H](O)C[C@@H]4C[C@H](O)CC[C@]4(C)[C@H]3CC[C@]12C,water,298,-4.2929,mol/L,392.5800000000002,4.477900000000004,77.76,3.0,3.0
Cc1cc(c(O)c(c1)C(C)(C)C)C(C)(C)C,water,298,-5.565,mol/L,220.35599999999997,4.295620000000003,20.23,1.0,1.0
CC(C)(C)c1cccc(c1O)C(C)(C)C,water,298,-4.9166,mol/L,206.32899999999995,3.987200000000003,20.23,1.0,1.0
COc1ccc2[C@H](OC(=O)c2c1OC)[C@@H]3N(C)CCc4cc5OCOc5c(OC)c34,water,298,-3.1393,mol/L,413.4260000000003,2.881800000000001,75.69000000000001,0.0,8.0
Oc1cccc2C(=O)c3ccccc3C(=O)c12,water,298,-4.4213,mol/L,224.215,2.1676,54.37,1.0,3.0
OC(=O)c1c(cc(cc1[N+]([O-])=O)[N+]([O-])=O)[N+]([O-])=O,water,298,-1.0977,mol/L,257.114,1.1094000000000002,166.72,1.0,7.0
Oc1ccc(Cl)c2cccnc12,water,298,-3.9756,mol/L,179.60600000000002,2.5938000000000008,33.120000000000005,1.0,2.0
Oc1c(cc(cc1[N+]([O-])=O)[N+]([O-])=O)C2CCCCC2,water,298,-4.2492,mol/L,266.253,3.256300000000002,106.50999999999999,1.0,5.0
OC(=O)c1cc(nc2ccccc12)c3ccccc3,water,298,-3.1926,mol/L,249.26900000000003,3.6000000000000014,50.19,1.0,2.0
OC(=O)c1ccccc1C(=O)Nc2cccc3ccccc23,water,298,-3.1633,mol/L,291.30600000000004,3.790300000000002,66.39999999999999,2.0,2.0
Oc1cc(O)c2ccccc2c1,water,298,-1.9493,mol/L,160.17199999999997,2.2509999999999994,40.46,2.0,2.0
ClC(Cl)(Cl)SN1C(=O)C2CC=CCC2C1=O,water,298,-4.7704,mol/L,300.5940000000001,2.913500000000001,37.38,0.0,3.0
ClC(Cl)(Cl)SN1C(=O)c2ccccc2C1=O,water,298,-5.569,mol/L,296.56200000000007,3.2585000000000015,37.38,0.0,3.0
OC(=O)CCCc1c[nH]c2ccccc12,water,298,-2.9101,mol/L,203.241,2.5752000000000006,53.089999999999996,2.0,1.0
OC(C(O)C(O)=O)C(O)=O,water,298,0.1561,mol/L,150.08599999999998,-2.1226,115.06,4.0,4.0
Cc1cc(O)c(Cl)c(C)c1Cl,water,298,-2.9801,mol/L,191.057,3.3158400000000015,20.23,1.0,1.0
OC(=O)c1cc(I)cc(I)c1O,water,298,-3.307,mol/L,389.914,2.2996000000000003,57.53,2.0,2.0
COC(=O)c1ccccc1N,water,298,-1.7246,mol/L,151.16499999999996,1.0554,52.32,1.0,3.0