Solute,Solvent,Temperature_K,Solubility,Units,MW,LogP,TPSA,HBD,HBA
CC(=O)C(N=Nc1ccc(C)cc1[N+]([O-])=O)C(=O)Nc2ccccc2,water,298,-7.417968366,mol/L,340.339,3.5832200000000016,114.03,1.0,6.0
[Co],water,298,-3.663827696,mol/L,58.933,-0.0025,0.0,0.0,0.0
[Co++].CCCCC(CC)C([O-])=O.CCCCC(CC)C([O-])=O,water,298,-6.432062275,mol/L,345.34500000000014,1.9028999999999998,80.25999999999999,0.0,4.0
[S--].[Co++],water,298,-4.857947626,mol/L,91.0,-0.0049,0.0,0.0,0.0
[Co++].CCCCC(CC)C([O-])=O.CCCCC(CC)C([O-])=O,water,298,-6.436849822,mol/L,345.34500000000014,1.9028999999999998,80.25999999999999,0.0,4.0
[S--].[Co++],water,298,-5.864221012,mol/L,91.0,-0.0049,0.0,0.0,0.0
[Co++].[O-]C(=O)C([O-])=O,water,298,-4.077239189,mol/L,146.951,-3.5163,80.25999999999999,0.0,4.0
[S--].[Co++],water,298,-5.867726233,mol/L,91.0,-0.0049,0.0,0.0,0.0
CCCCCCCCCC(=O)OOC(=O)CCCCCCCCC,water,298,-6.44975236,mol/L,342.5200000000002,6.269200000000007,52.6,0.0,4.0
Cc1ccccc1NC(=O)C2=Cc3ccccc3C(=N/Nc4ccc(Cl)cc4[N+]([O-])=O)/C2=O,water,298,-7.56321449,mol/L,460.8770000000001,4.977620000000003,113.69999999999999,2.0,6.0
[Ni++].[O-]c1ccc2ccccc2c1C=Nc3cc4NC(=O)Nc4cc3N=Cc5c([O-])ccc6ccccc56,water,298,-7.62669423,mol/L,529.1810000000003,4.808500000000002,119.49,2.0,5.0
[O--].[O--].[Pt+4],water,298,-7.26274955,mol/L,227.076,-0.2401,57.0,0.0,0.0
[Nd],water,298,-7.079904468,mol/L,144.24,0.0,0.0,0.0,0.0
O=[Co],water,298,-5.798391069,mol/L,74.932,-0.1213,17.07,0.0,1.0
[S--].[Co++],water,298,-4.901755748,mol/L,91.0,-0.0049,0.0,0.0,0.0
[S--].[Co++],water,298,-5.900235906,mol/L,91.0,-0.0049,0.0,0.0,0.0
[S--].[Co++],water,298,-4.903510167,mol/L,91.0,-0.0049,0.0,0.0,0.0
[S--].[Co++],water,298,-5.905194966,mol/L,91.0,-0.0049,0.0,0.0,0.0
[O--].[O--].[Pt+4],water,298,-6.304247319,mol/L,227.076,-0.2401,57.0,0.0,0.0
[Ca++].COc1ccc(NC(=O)C2=Cc3ccccc3/C(=N/Nc4cc(ccc4C)C(=O)Nc5cccc(c5)[S]([O-])(=O)=O)C2=O)cc1.COc6ccc(NC(=O)C7=Cc8ccccc8/C(=N/Nc9cc(ccc9C)C(=O)Nc%10cccc(c%10)[S]([O-])(=O)=O)C7=O)cc6,water,298,-7.050931183,mol/L,1259.358,8.781240000000004,332.17999999999995,6.0,18.0
CCOc1ccccc1NC(=O)C2=Cc3ccccc3C(=N/Nc4ccc(cc4)C(N)=O)\C2=O,water,298,-7.581973548,mol/L,454.4860000000002,3.605200000000001,122.88,3.0,6.0
Cc1ccc(cc1N\N=C2/C(=O)C(=Cc3ccccc23)C(=O)Nc4ccccc4)[N+]([O-])=O,water,298,-7.55796778,mol/L,426.4320000000002,4.324220000000003,113.70000000000002,2.0,6.0
O[Co]=O,water,298,-6.899041787,mol/L,91.939,-0.6783,37.3,1.0,1.0
CC(=O)C(N=Nc1ccc(cc1)[N+]([O-])=O)C(=O)Nc2ccc3NC(=O)Nc3c2,water,298,-7.525540341,mol/L,382.33600000000007,2.4444,162.67999999999998,3.0,7.0
Clc1ccc(Cl)c(N\N=C2\C(=O)C(=Cc3ccccc23)C(=O)Nc4ccc(NC(=O)C5=Cc6ccccc6C(=N/Nc7cc(Cl)ccc7Cl)\C5=O)c(Cl)c4)c1,water,298,-7.869298263,mol/L,828.9269999999999,9.795599999999997,141.12,4.0,8.0
CC(C)CCCCCCCO[P](=O)(Oc1ccccc1)Oc2ccccc2,water,298,-7.542358527,mol/L,390.46000000000004,7.265700000000007,44.760000000000005,0.0,4.0
CC(=C)C(=O)OCCCCCCCCCCCCOC(=O)C(C)=C,water,298,-7.484220298,mol/L,338.48800000000006,5.126000000000005,52.6,0.0,4.0
[Co],water,298,-3.730270706,mol/L,58.933,-0.0025,0.0,0.0,0.0
O[Co]=O,water,298,-4.928470494,mol/L,91.939,-0.6783,37.3,1.0,1.0
O=[P](Oc1ccccc1)(Oc2ccccc2)Oc3cccc(O[P](=O)(Oc4ccccc4)Oc5ccccc5)c3,water,298,-4.728337906,mol/L,574.4620000000002,8.9764,89.52000000000001,0.0,8.0
[Co],water,298,-3.740204279,mol/L,58.933,-0.0025,0.0,0.0,0.0
[O--].[O--].[Pt+4],water,298,-6.326787458,mol/L,227.076,-0.2401,57.0,0.0,0.0
[Co],water,298,-3.741746635,mol/L,58.933,-0.0025,0.0,0.0,0.0
[As],water,298,-3.848893978,mol/L,74.922,-0.3808,0.0,0.0,0.0
CC(=O)C(N=Nc1ccc(cc1)C(=O)Nc2ccc(cc2)C(N)=O)C(=O)Nc3ccc4NC(=O)Nc4c3,water,298,-6.672808806,mol/L,499.4870000000002,2.8873999999999995,191.72999999999996,5.0,7.0
O[Co]=O,water,298,-5.940659165,mol/L,91.939,-0.6783,37.3,1.0,1.0
Cc1cc(CCC(=O)OCCOCCOCCOC(=O)CCc2cc(C)c(O)c(c2)C(C)(C)C)cc(c1O)C(C)(C)C,water,298,-6.751431602,mol/L,586.7660000000003,5.9946400000000075,111.52000000000001,2.0,8.0
[S--].[Co++],water,298,-5.943262636,mol/L,91.0,-0.0049,0.0,0.0,0.0
[S--].[Co++],water,298,-4.947259562,mol/L,91.0,-0.0049,0.0,0.0,0.0
[S--].[Co++],water,298,-5.948317527,mol/L,91.0,-0.0049,0.0,0.0,0.0
O=[Co],water,298,-5.868201282,mol/L,74.932,-0.1213,17.07,0.0,1.0
[O--].[O--].[Pt+4],water,298,-6.351849862,mol/L,227.076,-0.2401,57.0,0.0,0.0
[Sr++].Cc1c(Cl)cc(cc1[S](O)(=O)=O)N=Nc2c([O-])c(cc3ccccc23)C([O-])=O,water,298,-6.704522855,mol/L,506.4340000000003,2.5200200000000006,142.28,1.0,7.0
CCOc1ccc(NC(=O)C(N=Nc2ccc(cc2Cl)c3ccc(N=NC(C(C)=O)C(=O)Nc4ccc(OCC)cc4)c(Cl)c3)C(C)=O)cc1,water,298,-7.830582617,mol/L,717.61,8.817800000000002,160.23999999999998,2.0,10.0
S=C(SSSSSSC(=S)N1CCCCC1)N2CCCCC2,water,298,-7.631732206,mol/L,448.8420000000005,6.502200000000005,6.48,0.0,8.0
O=C1c2ccccc2Nc3cc4C(=O)c5ccccc5Nc4cc13,water,298,-7.481773696,mol/L,312.32800000000003,3.676000000000001,65.72,2.0,2.0
CC(=O)C(N=Nc1cc(ccc1Cl)C(=O)Nc2cccc(Cl)c2C)C(=O)Nc3cc(Cl)c(NC(=O)C(N=Nc4cc(ccc4Cl)C(=O)Nc5cccc(Cl)c5C)C(C)=O)cc3C,water,298,-7.971771107,mol/L,937.0679999999998,11.743459999999988,199.98,4.0,10.0
COc1ccc(cc1N\N=C2/C(=O)C(=Cc3ccccc23)C(=O)Nc4cc(Cl)ccc4C)C(=O)Nc5ccccc5,water,298,-7.752070739,mol/L,565.0290000000002,6.330320000000004,108.88999999999999,3.0,6.0
CCCCCCCCOC(=O)c1ccccc1C(=O)OCc2ccccc2,water,298,-8.287652069,mol/L,368.4730000000001,5.5609000000000055,52.60000000000001,0.0,4.0
COc1ccc(N=NC(C(C)=O)C(=O)Nc2ccccc2OC)c(c1)[N+]([O-])=O,water,298,-8.308243053,mol/L,386.36400000000015,3.2920000000000007,132.49,1.0,8.0
COc1ccc(cc1N\N=C2/C(=O)C(=Cc3ccccc23)C(=O)Nc4ccc5NC(=O)Nc5c4)C(=O)Nc6ccccc6,water,298,-8.479083332,mol/L,572.5810000000002,4.538100000000002,157.53999999999996,5.0,7.0
C1CCC(CC1)N(Sc2sc3ccccc3n2)C4CCCCC4,water,298,-8.2610311,mol/L,346.5650000000002,6.270800000000006,16.130000000000003,0.0,4.0
CC(C)(C)CC(C)(C)N(c1ccccc1)c2cccc3ccccc23,water,298,-8.290038542,mol/L,331.5030000000001,7.192700000000007,3.24,0.0,1.0
COc1ccccc1NC(=O)C2=Cc3ccccc3C(=N/Nc4cc(Cl)ccc4Cl)\C2=O,water,298,-8.464567785,mol/L,466.3240000000001,5.423000000000003,79.78999999999999,2.0,5.0
CC(C)(C)c1cc(CCC(=O)OCCNC(=O)C(=O)NCCOC(=O)CCc2cc(c(O)c(c2)C(C)(C)C)C(C)(C)C)cc(c1O)C(C)(C)C,water,298,-8.667095408,mol/L,696.926,6.172000000000007,151.26,4.0,8.0
Cc1cc(C)cc(c1)N2C(=O)c3ccc4c5ccc6C(=O)N(c7cc(C)cc(C)c7)C(=O)c8ccc(c9ccc(C2=O)c3c49)c5c68,water,298,-8.631050755,mol/L,598.6580000000001,8.572080000000001,74.76,0.0,4.0
CCCCCCCCCCCCCCCCCC(=O)OC(CCCCCC)CCCCCCCCCCC(=O)OCCCCCCCCCCCCCC(C)C,water,298,-8.755372465,mol/L,791.3839999999996,17.911499999999975,52.60000000000001,0.0,4.0
CC(C)CCC[C@@H](C)CCC[C@@H](C)CCC[C@]1(C)CCc2c(C)c(O)c(C)c(C)c2O1,water,298,-8.520248661,mol/L,430.71700000000027,8.840260000000002,29.46,1.0,2.0
CC(C)CCCC(C)CCCC(C)CCCC1(C)CCc2cc(O)c(C)c(C)c2O1,water,298,-8.505869726,mol/L,416.6900000000002,8.531840000000006,29.46,1.0,2.0
[O--].[O--].[Pt+4],water,298,-8.242227883,mol/L,227.076,-0.2401,57.0,0.0,0.0
CCCCCCCC\C=C/CCCCCCCC(=O)OCC(CC)(CO)COC(=O)CCCCCCC\C=C/CCCCCCCC,water,298,-8.721196039,mol/L,663.0809999999999,12.53649999999998,72.83000000000001,1.0,5.0
[Ag+].[C-]#N,water,298,-8.085342482,mol/L,133.886,0.09387,23.79,0.0,1.0
[O--].[Pd++],water,298,-8.062542962,mol/L,122.419,-0.1213,28.5,0.0,0.0
CC(=O)C(N=Nc1ccc(cc1Cl)c2ccc(N=NC(C(C)=O)C(=O)Nc3ccccc3C)c(Cl)c2)C(=O)Nc4ccccc4C,water,298,-8.914844079,mol/L,657.5580000000001,8.637240000000004,141.77999999999997,2.0,8.0
CCCCC(CC)CN[S](=O)(=O)c1ccc(cc1)N=NC2=C(O)N(CCCC)C(=O)C(=C2C)C#N,water,298,-8.797313427,mol/L,501.65300000000036,5.444200000000005,136.91,2.0,8.0
[Co],water,298,-7.867268563,mol/L,58.933,-0.0025,0.0,0.0,0.0
CC(C)CCCCCCCCCCOC(=O)CCCCC(=O)OCCCCCCCCCCC(C)C,water,298,-8.837299483,mol/L,510.84400000000056,9.966999999999999,52.60000000000001,0.0,4.0
CCc1cc(Cc2cc(CC)cc(c2O)C(C)(C)C)c(O)c(c1)C(C)(C)C,water,298,-8.699631563,mol/L,368.5610000000001,6.408400000000008,40.46,2.0,2.0
CC(C)CCCCCCCCCCOC(=O)CCCCC(=O)OCCCCCCCCCCC(C)C,water,298,-8.89940243,mol/L,510.84400000000056,9.966999999999999,52.60000000000001,0.0,4.0
CC(C)CCCCCCOC(=O)c1ccccc1C(=O)OCCCCCCC(C)C,water,298,-8.843666648,mol/L,418.6180000000004,7.2132000000000085,52.60000000000001,0.0,4.0
[O--].[O--].[O--].[O--].[O--].[Al+3].[Al+3].[Co++].[Co++],water,298,-8.622947592,mol/L,251.825,-1.3605999999999998,142.5,0.0,0.0
S=[SnH2],water,298,-8.40595505,mol/L,152.79399999999998,-0.268,0.0,0.0,1.0
Clc1cccc(N\N=C2/C(=O)C(=Cc3ccccc23)C(=O)Nc4cccc5c(NC(=O)C6=Cc7ccccc7C(=N/Nc8cccc(Cl)c8Cl)\C6=O)cccc45)c1Cl,water,298,-9.227651248,mol/L,844.5419999999999,10.295399999999994,141.12,4.0,8.0
CCCC(CC)COC(=O)CCc1cc(c(O)c(c1)C(C)(C)C)C(C)(C)C,water,298,-8.8768884,mol/L,376.58100000000013,6.289300000000007,46.53,1.0,3.0
[S--].[S--].[S--].[Bi+3].[Bi+3],water,298,-9.098315275,mol/L,514.161,-0.7688,0.0,0.0,0.0
CC(=O)C(N=Nc1ccc(cc1Cl)c2ccc(N=NC(C(C)=O)C(=O)Nc3ccccc3)c(Cl)c2)C(=O)Nc4ccccc4,water,298,-9.196938503,mol/L,629.5040000000001,8.020400000000006,141.77999999999997,2.0,8.0
[Co],water,298,-8.168298558,mol/L,58.933,-0.0025,0.0,0.0,0.0
O[Co]=O,water,298,-8.361439784,mol/L,91.939,-0.6783,37.3,1.0,1.0
O=[Co],water,298,-8.272607333,mol/L,74.932,-0.1213,17.07,0.0,1.0
FC(F)(F)C(F)(F)C(F)(F)N(C(F)(F)C(F)(F)C(F)(F)F)C(F)(F)C(F)(F)C(F)(F)F,water,298,-9.135966093,mol/L,521.064,6.659600000000003,3.24,0.0,1.0
CC(=O)C(N=Nc1ccc(cc1Cl)c2ccc(N=NC(C(C)=O)C(=O)Nc3ccc(C)cc3C)c(Cl)c2)C(=O)Nc4ccc(C)cc4C,water,298,-9.292010366,mol/L,685.6120000000001,9.254080000000002,141.77999999999997,2.0,8.0
[Co],water,298,-8.293237295,mol/L,58.933,-0.0025,0.0,0.0,0.0
CCOC(=O)OCCOc1cc(O)c2C(=O)c3ccccc3C(=O)c2c1N,water,298,-9.219529562,mol/L,371.34500000000014,2.3017000000000003,125.14999999999999,2.0,8.0
[Co],water,298,-8.469328554,mol/L,58.933,-0.0025,0.0,0.0,0.0
CCCCC(CC)CO[P](=O)(OCC(CC)CCCC)OCC(CC)CCCC,water,298,-9.407682769,mol/L,434.6420000000004,8.793500000000003,44.760000000000005,0.0,4.0
C[Si](C)(C)O[Si](O[Si](C)(C)C)(O[Si](C)(C)C)O[Si](C)(C)C,water,298,-9.407173725,mol/L,384.8460000000002,4.828000000000005,36.92,0.0,4.0
CC(C)(c1cc(Br)c(OCC(Br)CBr)c(Br)c1)c2cc(Br)c(OCC(Br)CBr)c(Br)c2,water,298,-9.816435105,mol/L,943.6209999999999,10.13689999999999,18.46,0.0,2.0
CCCCC(CC)CO[P](=O)(OCC(CC)CCCC)OCC(CC)CCCC,water,298,-9.558950444,mol/L,434.6420000000004,8.793500000000003,44.760000000000005,0.0,4.0
[Co],water,298,-8.77035855,mol/L,58.933,-0.0025,0.0,0.0,0.0
CC(C)(C)c1cc(Cc2cc(c(O)c(c2)C(C)(C)C)C(C)(C)C)cc(c1O)C(C)(C)C,water,298,-10.12425988,mol/L,424.6690000000002,7.878600000000009,40.46,2.0,2.0
[Ir],water,298,-9.982761799,mol/L,192.217,-0.0025,0.0,0.0,0.0
[Co++].[O-]C([O-])=O,water,298,-7.081014433,mol/L,118.94099999999999,-2.4495000000000005,63.19,0.0,3.0
CC(C)CCCCCCCCCCCCCCCOC(=O)CC(O)C(=O)OCCCCCCCCCCCCCCCC(C)C,water,298,-7.992627599,mol/L,639.059,12.058599999999986,72.83,1.0,5.0
CC1CC(C)(C)CC(C1)(OOC(C)(C)C)OOC(C)(C)C,water,298,-6.748267009,mol/L,302.45500000000004,5.022300000000005,36.92,0.0,4.0
[Co++].CCCCCCCCCCCCCCCCCC([O-])=O.CCCCCCCCCCCCCCCCCC([O-])=O,water,298,-5.273398705,mol/L,625.8850000000003,9.993099999999997,80.25999999999999,0.0,4.0
[Co++].CCCCCCCCCCCCCCCCCC([O-])=O.CCCCCCCCCCCCCCCCCC([O-])=O,water,298,-6.289178503,mol/L,625.8850000000003,9.993099999999997,80.25999999999999,0.0,4.0
CCCCCCCCCCOC(=O)C(CC)CCCC,water,298,-8.193986458,mol/L,284.484,5.8867000000000065,26.3,0.0,2.0
CC(CCOC(=O)CC(C)CC(C)(C)C)CC(C)(C)C,water,298,-8.277966587,mol/L,284.484,5.454400000000006,26.3,0.0,2.0
CCCCCCCCCCCCCCCCCC(=O)OCCCCCCCCCCCCCC,water,298,-8.983050454,mol/L,480.86200000000053,11.492199999999986,26.3,0.0,2.0
C1CO[Sb]2OCCO[Sb](O1)OCCO2,water,298,-9.024973872,mol/L,423.6760000000001,-0.917,55.38000000000001,0.0,6.0
[Ba++].Cc1ccc(N\N=C\2C(=O)C(=Cc3ccccc23)C([O-])=O)c(c1)[S]([O-])(=O)=O,water,298,-7.094169049,mol/L,521.6970000000002,0.0505199999999999,138.79,1.0,8.0
CCCCCCCC(=O)CC(=O)c1ccccc1,water,298,-5.883696695,mol/L,246.35,4.189000000000004,34.14,0.0,2.0
CCCCCCCC(=O)CC(=O)c1ccccc1,water,298,-5.910109938,mol/L,246.35,4.189000000000004,34.14,0.0,2.0
O=[P](Oc1ccccc1)(Oc2ccccc2)Oc3cccc(O[P](=O)(Oc4ccccc4)Oc5ccccc5)c3,water,298,-8.236817072,mol/L,574.4620000000002,8.9764,89.52000000000001,0.0,8.0
COCCCN1C(=O)c2c(N)c3C(=O)c4ccccc4C(=O)c3c(N)c2C1=O,water,298,-8.181125265,mol/L,379.3720000000002,0.4649999999999996,134.48,2.0,8.0
CC(C)(c1cc(Br)c(O)c(Br)c1)c2cc(Br)c(O)c(Br)c2.ClCC3CO3,water,298,-8.803730171,mol/L,636.3999999999999,7.097700000000006,52.99,2.0,3.0
O=[Cr]O[Cr]=O.O=[Mn]O[Mn]=O.O=[Fe]O[Fe]=O,water,298,-8.972710916,mol/L,469.5490000000001,-0.9329999999999999,130.11,0.0,9.0
[Si],water,298,-5.663160057,mol/L,28.086,-0.3808,0.0,0.0,0.0
[Si],water,298,-6.732486548,mol/L,28.086,-0.3808,0.0,0.0,0.0
[Si],water,298,-5.78573206,mol/L,28.086,-0.3808,0.0,0.0,0.0
Cc1cc(Cl)cc2SC(/C(=O)c12)=C/3Sc4cc(Cl)cc(C)c4C3=O,water,298,-7.931983782,mol/L,393.31600000000014,6.098840000000004,34.14,0.0,4.0
COc1ccc(N\N=C2/C(=O)C=Cc3ccccc23)c(c1)[N+]([O-])=O,water,298,-7.991102511,mol/L,323.3080000000001,3.015500000000001,93.82999999999998,1.0,6.0
Cc1cc(Cc2cc(C)cc(c2O)C3(C)CCCCC3)c(O)c(c1)C4(C)CCCCC4,water,298,-8.146786217,mol/L,420.6370000000003,7.749040000000008,40.46,2.0,2.0
S.[Mo],water,298,-5.812990187,mol/L,130.023,0.11030000000000006,0.0,0.0,0.0
Brc1cc2C(=O)c3cccc4c(Br)cc5C(=O)c6cccc1c6c2c5c34,water,298,-7.633199042,mol/L,464.1120000000002,5.963000000000002,34.14,0.0,2.0
CC1=CC2=NC(=O)N=C2C=C1NNC3C(=O)NC(=O)NC3=O,water,298,-6.489140234,mol/L,302.2500000000001,-1.9810799999999995,141.11999999999998,4.0,6.0
Cc1ccc(Nc2nc(Nc3ccc(C)cc3)c(C#N)c(C)c2N=Nc4ccccc4C(F)(F)F)cc1,water,298,-7.717157144,mol/L,500.5280000000002,8.799940000000001,85.46,2.0,6.0
CN1C(=O)c2ccc3c4ccc5C(=O)N(C)C(=O)c6ccc(c7ccc(C1=O)c2c37)c4c56,water,298,-7.718509993,mol/L,418.4080000000002,4.188800000000003,74.76,0.0,4.0
COCCCN1C(=O)c2ccc3C(=O)n4c5ccc(C)cc5nc4c6ccc(C1=O)c2c36,water,298,-6.771509907,mol/L,425.44400000000024,3.5328200000000027,80.97999999999999,0.0,6.0
Oc1cc2ccccc2cc1C(=O)N=NNc3cc(Cl)c(cc3Cl)c4ccc(cc4)c5cc(Cl)c(NN=NC(=O)c6cc7ccccc7cc6O)cc5Cl,water,298,-8.087170706,mol/L,794.4819999999999,12.590799999999984,148.1,4.0,6.0
CCCCCCCOCC(COCCCCCCC)(COCCCCCCC)COCCCCCCC,water,298,-7.94522478,mol/L,528.9030000000005,9.9208,36.92,0.0,4.0
O=[Zr]=O,water,298,-6.350325564,mol/L,123.222,-0.2401,34.14,0.0,2.0
COc1cc(N=Nc2c(Br)cc(cc2[N+]([O-])=O)[N+]([O-])=O)c(NC(C)=O)cc1N(CC=C)CC=C,water,298,-7.009332839,mol/L,533.3390000000003,5.826300000000005,152.57000000000002,1.0,9.0
O=C1\C(Nc2ccccc12)=C/3Nc4ccccc4C3=O,water,298,-6.7197753,mol/L,262.268,2.8148,58.2,2.0,4.0
CCCCCCCCCCCCCC(=O)OC(C)C,water,298,-6.733128222,mol/L,270.45699999999994,5.639100000000005,26.3,0.0,2.0
CCCC(Cl)CCCC(Cl)CCC(Cl)CCC(Cl)CCC(Cl)CCCC(Cl)CCC,water,298,-8.037692571,mol/L,545.3340000000001,10.912199999999988,0.0,0.0,0.0
CCCCCCCCCc1cccc(Nc2cccc(CCCCCCCCC)c2)c1,water,298,-7.926046985,mol/L,421.7130000000004,10.016399999999996,12.03,1.0,1.0
O=[Ti]=O,water,298,-7.203386492,mol/L,79.865,-0.2401,34.14,0.0,2.0
CCOC(=O)C(C#N)=C(c1ccccc1)c2ccccc2,water,298,-7.744015885,mol/L,277.32300000000004,3.5751800000000022,50.09,0.0,3.0
CC(C)(C)c1cc(CCC(=O)OCCCCCCOC(=O)CCc2cc(c(O)c(c2)C(C)(C)C)C(C)(C)C)cc(c1O)C(C)(C)C,water,298,-8.106483276,mol/L,638.9300000000002,9.5,93.06,2.0,6.0
CC(C)(C)c1ccc(OP(Oc2ccc(cc2C(C)(C)C)C(C)(C)C)Oc3ccc(cc3C(C)(C)C)C(C)(C)C)c(c1)C(C)(C)C,water,298,-8.111891986,mol/L,646.9370000000001,13.235299999999976,27.69,0.0,3.0
COC(=O)CCN(CCC(=O)OC)c1ccc(cc1)N=Nc2c(Cl)cc(cc2Br)[N+]([O-])=O,water,298,-7.100221625,mol/L,527.7590000000001,5.358700000000004,123.70000000000002,0.0,9.0
COc1cc(ccc1NN=C2C=CC(=O)C=C2)N=Nc3ccc(cc3)[N+]([O-])=O,water,298,-6.963972007,mol/L,377.3600000000001,4.481800000000003,118.55000000000001,1.0,8.0
CC(=O)OCCN(CCC#N)c1ccc(cc1)N=Nc2c(Cl)cc(cc2Cl)[N+]([O-])=O,water,298,-7.051424595,mol/L,450.2820000000002,5.600180000000004,121.19,0.0,8.0
[Nb],water,298,-7.314831249,mol/L,92.906,-0.0025,0.0,0.0,0.0
CCCC(c1cc(c(O)cc1C)C(C)(C)C)c2cc(c(O)cc2C)C(C)(C)C,water,298,-7.980671353,mol/L,382.58800000000014,7.241640000000008,40.46,2.0,2.0
CCCCCCCCCCCCCCCCCCOC(=O)CCSCCC(=O)OCCCCCCCCCCCCCCCCCC,water,298,-8.232475788,mol/L,683.1809999999996,14.109199999999971,52.60000000000001,0.0,5.0
[Sn],water,298,-7.472430972,mol/L,118.711,-0.3808,0.0,0.0,0.0
CCCCC(CC)COC(=O)\C=C/C(=O)OCC(CC)CCCC,water,298,-6.975819717,mol/L,340.5040000000002,5.061800000000005,52.60000000000001,0.0,4.0
CCN(CC)c1ccc(N=Nc2c(Cl)cc(cc2[N+]([O-])=O)[N+]([O-])=O)c(NC(C)=O)c1,water,298,-7.115885254,mol/L,434.8400000000002,5.376400000000004,143.34,1.0,8.0
[Na+].C[O-].COC(=O)c1c(Cl)c(Cl)c(Cl)c(Cl)c1C#N.Cc2c(N)cccc2N,water,298,-7.171667045,mol/L,475.1350000000003,1.0984,125.19,2.0,6.0
[O-][N+](=O)c1ccc(cc1)N=Nc2ccc(cc2)N(CCOC(=O)c3ccccc3)CCC#N,water,298,-7.169736136,mol/L,443.46300000000025,5.587280000000005,121.19,0.0,8.0
[Na+].C[O-].COC(=O)c1c(Cl)c(Cl)c(Cl)c(Cl)c1C#N.Nc2ccc(N)cc2,water,298,-7.186681402,mol/L,461.10800000000023,0.7899799999999995,125.19,2.0,6.0
CCN(CC)c1ccc(N=Nc2c(cc(cc2C#N)[N+]([O-])=O)C#N)c(NC(C)=O)c1,water,298,-8.102753049,mol/L,405.4180000000001,4.558160000000004,147.77999999999997,1.0,8.0
CCCCCCCCCCCC(=O)OCC(C)C,water,298,-7.931847578,mol/L,256.42999999999995,5.106500000000005,26.3,0.0,2.0
CCCCCCCC\C=C\CCCCCCCC(=O)OCCC(C)C,water,298,-8.070164748,mol/L,352.60300000000007,7.613200000000009,26.3,0.0,2.0
[Ba++].CCc1cc(N\N=C/2C(=O)C=Cc3ccccc23)c(cc1Cl)[S]([O-])(=O)=O.CCc4cc(N\N=C/5C(=O)C=Cc6ccccc56)c(cc4Cl)[S]([O-])(=O)=O,water,298,-7.499975127,mol/L,917.0079999999999,6.056400000000005,197.32,2.0,12.0
FC(F)(F)C(F)(F)C(F)(F)C(F)(F)[S](F)(=O)=O,water,298,-6.042384349,mol/L,302.08900000000006,2.7114,34.14,0.0,2.0
Fc1ccc(Cc2ccc(F)cc2)cc1,water,298,-6.912156137,mol/L,204.219,3.555600000000002,0.0,0.0,0.0
CC(=O)C(N=Nc1cc(ccc1Cl)C(=O)Nc2cc(ccc2Oc3ccc(Cl)cc3)C(F)(F)F)C(=O)Nc4cc(Cl)c(NC(=O)C(N=Nc5cc(ccc5Cl)C(=O)Nc6cc(ccc6Oc7ccc(Cl)cc7)C(F)(F)F)C(C)=O)cc4C,water,298,-7.69168325,mol/L,1229.2019999999995,16.748819999999984,218.44,4.0,12.0
[Ba++].Cc1cc(c(N\N=C/2C(=O)C(=Cc3ccccc23)C([O-])=O)cc1Cl)[S]([O-])(=O)=O,water,298,-7.347245686,mol/L,556.1420000000003,0.7039199999999999,138.79,1.0,8.0
COC(=O)CCN(CCC(=O)OC)c1ccc(N=Nc2ccc(cc2[N+]([O-])=O)[N+]([O-])=O)c(NC(C)=O)c1,water,298,-7.332831336,mol/L,516.4670000000003,3.809400000000002,195.94,1.0,12.0
CC(Br)(CBr)COc1c(Br)cc(cc1Br)C(C)(C)c2cc(Br)c(OCC(C)(Br)CBr)c(Br)c2,water,298,-7.686491033,mol/L,971.6749999999998,10.917099999999987,18.46,0.0,2.0
CC(C)(C)c1ccc(OC(=O)c2cc(c(O)c(c2)C(C)(C)C)C(C)(C)C)c(c1)C(C)(C)C,water,298,-7.341090118,mol/L,438.65200000000027,7.801400000000009,46.53,1.0,3.0
CCN(CC)c1ccc(N=Nc2c(Br)cc(cc2[N+]([O-])=O)[N+]([O-])=O)c(NC(C)=O)c1,water,298,-7.379569278,mol/L,479.2910000000002,5.485500000000004,143.34,1.0,8.0
Clc1ccc(c(Cl)c1)C(=O)OOC(=O)c2ccc(Cl)cc2Cl,water,298,-8.27876503,mol/L,380.01,5.229000000000002,52.6,0.0,4.0
CCCCC(CC)CN(CC(CC)CCCC)CC(CC)CCCC,water,298,-8.247579278,mol/L,353.67900000000014,7.93760000000001,3.24,0.0,1.0
O=C1N(CCc2ccccc2)C(=O)c3ccc4c5ccc6C(=O)N(CCc7ccccc7)C(=O)c8ccc(c9ccc1c3c49)c5c68,water,298,-8.476148795,mol/L,598.6580000000001,7.414600000000006,74.76,0.0,4.0
CCCCCCCCCCCCCCCCCc1[nH]ccn1,water,298,-7.214642713,mol/L,306.5379999999999,6.823600000000007,28.68,1.0,1.0
[Na+].C[O-].COC(=O)c1c(Cl)c(Cl)c(Cl)c(Cl)c1C#N.Cc2cc(N)ccc2N=Nc3ccc(N)cc3,water,298,-7.532414872,mol/L,579.2470000000002,3.5138000000000007,149.91,2.0,8.0
CC(=C)C(=O)OCCCOc1ccc(cc1)C(C)(C)c2ccc(OCCCOC(=O)C(C)=C)cc2,water,298,-7.456475388,mol/L,480.6010000000004,5.788900000000006,71.06,0.0,6.0
[Nb],water,298,-6.791952503,mol/L,92.906,-0.0025,0.0,0.0,0.0
[Sr++].Cc1cc(N\N=C/2C(=O)C(=Cc3ccccc23)C([O-])=O)c(cc1Cl)[S]([O-])(=O)=O,water,298,-7.528431596,mol/L,506.4340000000002,0.7039199999999999,138.79,1.0,8.0
CC(=O)OCCN(CCOC(C)=O)c1ccc(cc1)N=Nc2sc(cc2[N+]([O-])=O)[N+]([O-])=O,water,298,-7.547293505,mol/L,465.4440000000002,3.912500000000003,166.83999999999997,0.0,12.0
Clc1c(Cl)c(Cl)c2C(=O)C(c3ccc4cccc(N5C(=O)c6c(Cl)c(Cl)c(Cl)c(Cl)c6C5=O)c4n3)C(=O)c2c1Cl,water,298,-7.727396093,mol/L,693.9680000000001,9.425399999999996,84.41,0.0,5.0
CCN(CC)c1ccc(N=Nc2c(cc(cc2C#N)[N+]([O-])=O)C#N)c(C)c1,water,298,-7.47281997,mol/L,362.3930000000001,4.908180000000004,118.67999999999998,0.0,7.0