Solute,Solvent,Temperature_K,Solubility,Units,MW,LogP,TPSA,HBD,HBA
C[Si]1(C)O[Si](C)(C)O[Si](C)(C)O1,water,298,0.652738306,mol/L,222.46499999999995,2.1552,27.69,0.0,3.0
[Cl-].C[NH3+],water,298,1.170573999,mol/L,67.519,-4.137899999999999,27.64,1.0,0.0
[K+].OC(=O)c1ccccc1C([O-])=O,water,298,0.689897475,mol/L,204.22199999999998,-3.2476999999999983,77.43,1.0,3.0
OCC(O)CO,water,298,1.035768664,mol/L,92.09400000000001,-1.6681000000000001,60.69,3.0,3.0
[Na+].Oc1ccccc1C([O-])=O,water,298,0.795597818,mol/L,160.10399999999996,-3.2402999999999986,60.36,1.0,3.0
[Br-].CC[N+](CC)(CC)CC,water,298,0.677452007,mol/L,210.15899999999996,-1.1131999999999982,0.0,0.0,0.0
[Cl-].CC[N+](CC)(CC)CC,water,298,0.780656524,mol/L,165.708,-1.1131999999999982,0.0,0.0,0.0
[K+].C[Si](O)(O)[O-],water,298,0.878663433,mol/L,132.23199999999997,-5.095999999999998,63.519999999999996,2.0,3.0
CC/C(C)=N/O[Si@](C)(O\N=C(C)\CC)O\N=C(C)\CC,water,298,-0.479234017,mol/L,301.4630000000001,3.9626000000000037,64.77,0.0,6.0
OO,water,298,0.468342293,mol/L,34.014,0.01739999999999997,40.46,2.0,2.0
[Na+].[Na+].CC1=CC(/C=C(C1=N)[S]([O-])(=O)=O)=C(/c2ccc(N)c(c2)[S](O)(=O)=O)c3ccc(N)c(c3)[S]([O-])(=O)=O,water,298,-1.767563244,mol/L,585.5490000000003,-4.779529999999994,244.66,4.0,11.0
Cc1ccc(C(O)=O)c(O)c1,water,298,-1.182269102,mol/L,152.149,1.39882,57.53,2.0,2.0
o1cccc1,water,298,-0.83298765,mol/L,68.075,1.2796,13.14,0.0,1.0
CC(O)c1ccccc1,water,298,-2.086953909,mol/L,122.16699999999996,1.7399,20.23,1.0,1.0
OC(=O)c1cc(ccc1O)[N+]([O-])=O,water,298,-2.262733408,mol/L,183.11899999999997,0.9985999999999999,100.66999999999999,2.0,4.0
Nc1ccc(Cc2ccc(N)cc2)cc1,water,298,-2.297254816,mol/L,198.269,2.4418000000000006,52.04,2.0,2.0
CCCCCCCCCO,water,298,-2.159139907,mol/L,144.258,2.7293000000000016,20.23,1.0,1.0
CCCCCCCCCCCCCNCCCCCCCCCCCCC.CCCCCCCCCCCCCNCC(C)CCCCCCCCCC,water,298,-3.882789701,mol/L,763.4659999999997,18.25189999999998,24.06,2.0,2.0
CC(C)=CCC\C(C)=C\CO,water,298,-3.188233619,mol/L,154.253,2.6714000000000016,20.23,1.0,1.0
Cc1ccc(cc1C)[N+]([O-])=O,water,298,-3.179451248,mol/L,151.165,2.21164,43.14,0.0,2.0
ClCc1ccccc1Cl,water,298,-3.20690949,mol/L,161.03099999999995,3.078800000000001,0.0,0.0,0.0
N#CCc1ccccc1,water,298,-3.068746,mol/L,117.15099999999995,1.75268,23.79,0.0,1.0
CC(CC=O)CC(C)(C)C,water,298,-3.15302785,mol/L,142.242,2.6477000000000013,17.07,0.0,1.0
Cc1cc(Cc2cc(C)c(O)c(C)c2)cc(C)c1O,water,298,-3.408824851,mol/L,256.34499999999997,3.922280000000003,40.46,2.0,2.0
CC(C)(C)c1ccc(C=O)cc1,water,298,-3.210136522,mol/L,162.23199999999997,2.7966000000000015,17.07,0.0,1.0
Oc1ccc(cc1)C(=O)OCc2ccccc2,water,298,-3.358405078,mol/L,228.24699999999999,2.749200000000001,46.53,1.0,3.0
CCC(=O)OCc1ccccc1,water,298,-3.215383732,mol/L,164.204,2.1398,26.3,0.0,2.0
CC(=C)c1ccccc1,water,298,-3.072540311,mol/L,118.17899999999996,2.7197000000000005,0.0,0.0,0.0
[Na].CCCCCCCCCCCCO[S](=O)(=O)c1ccccc1,water,298,-3.543437239,mol/L,349.492,4.932000000000005,43.370000000000005,0.0,3.0
CCCCCCCCCCCCCO,water,298,-3.301824028,mol/L,200.36599999999996,4.289700000000004,20.23,1.0,1.0
[Bi+3].OC(CC([O-])=O)(CC([O-])=O)C([O-])=O,water,298,-4.55976264,mol/L,398.07900000000024,-5.633399999999998,140.62,1.0,7.0
Nc1nc(N)nc(Nc2nc(N)nc(N)n2)n1,water,298,-4.332447692,mol/L,235.215,-1.8710000000000013,193.45,5.0,11.0
CCOC(=O)OC1CCCCC1C(C)(C)C,water,298,-4.321140283,mol/L,228.33199999999994,3.764400000000003,35.53,0.0,3.0
[H+].[Cl-].CN(C)C(=O)C(CCN1CCC(O)(CC1)c2ccc(Cl)cc2)(c3ccccc3)c4ccccc4,water,298,-4.673121562,mol/L,513.5090000000001,2.2045000000000012,43.78,1.0,3.0
CCCCCC(=O)OC(=O)CCCCC,water,298,-4.296805043,mol/L,214.30499999999992,3.216800000000002,43.370000000000005,0.0,3.0
Oc1cc(Cl)ccc1Oc2ccc(Cl)cc2Cl,water,298,-4.428292314,mol/L,289.54499999999996,5.144700000000002,29.46,1.0,2.0
CN(C)Cc1cc(c(O)c(c1)C(C)(C)C)C(C)(C)C,water,298,-4.391273211,mol/L,263.42499999999995,4.0488000000000035,23.47,1.0,2.0
CCCCCCCCCC(C)=O,water,298,-4.20182067,mol/L,170.296,3.7161000000000026,17.07,0.0,1.0
CC(C)(C)OOC(C)(C)c1ccccc1,water,298,-4.29093415,mol/L,208.30100000000002,3.6684000000000028,18.46,0.0,2.0
CCCCCCCCCC(=O)OC,water,298,-4.244076682,mol/L,186.295,3.3001000000000023,26.3,0.0,2.0
CC(C)CCCCCOC(=O)CS,water,298,-4.285036897,mol/L,204.335,2.675800000000001,26.3,1.0,3.0
C=CCCCCC=C,water,298,-4.02327315,mol/L,110.19999999999999,2.918800000000002,0.0,0.0,0.0
[Ni++].[O-]C(=O)C([O-])=O,water,298,-4.153625453,mol/L,146.71099999999998,-3.5163,80.25999999999999,0.0,4.0
OC(=O)CCCCCCCCCCCC(O)=O,water,298,-4.38151253,mol/L,244.33099999999993,3.4467000000000017,74.6,2.0,2.0
CCC(C)c1ccccc1,water,298,-4.123502332,mol/L,134.22199999999998,3.2001000000000017,0.0,0.0,0.0
CCCCOC(=O)c1ccccc1C(=O)OCCCC,water,298,-4.444588105,mol/L,278.348,3.600400000000003,52.60000000000001,0.0,4.0
CC(=O)O[C@@H]1CCCC[C@@H]1C(C)(C)C,water,298,-4.297335855,mol/L,198.30599999999998,3.1544000000000016,26.3,0.0,2.0
Oc1cc(Cl)ccc1Oc2ccc(Cl)cc2Cl,water,298,-4.46171607,mol/L,289.54499999999996,5.144700000000002,29.46,1.0,2.0
Oc1cc(Cl)ccc1Oc2ccc(Cl)cc2,water,298,-4.406710459,mol/L,255.1,4.491300000000002,29.46,1.0,2.0
CCCCCCCCCCCCCCCCCC(=O)NCCCN(C)C,water,298,-4.566614238,mol/L,368.6500000000001,6.3158000000000065,32.34,1.0,2.0
C1CCCCCCCCCCC1,water,298,-4.226146043,mol/L,168.32399999999998,4.681200000000004,0.0,0.0,0.0
[Na+].O[S](=O)(=O)c1ccc(cc1)N=Nc2ccc(N\N=C3/C(=O)C=Cc4ccccc34)cc2,water,298,-4.65844166,mol/L,455.4510000000002,1.7648000000000004,120.54999999999998,2.0,7.0
CC1COCc2cc3c(cc12)C(C)(C)C(C)C3(C)C,water,298,-5.113447836,mol/L,258.405,4.525200000000004,9.23,0.0,1.0
[OH-].[OH-].[Mg++],water,298,-4.469144878,mol/L,58.319,-0.7343999999999999,60.0,0.0,2.0
[Mg++].C[O-].C[O-],water,298,-4.639712814,mol/L,86.373,-2.4277999999999986,46.12,0.0,2.0
CC1=CCC2CC1C2(C)C.CC3(C)OC4(C)CCC3CC4.CC5(C)C6CCC(C6)C5=C.CC7(C)C8CCC7(C)C(=O)C8,water,298,-5.468186834,mol/L,578.9660000000003,11.14319999999999,26.3,0.0,2.0
CC(=C)C1CCC(=CC1)C.CC2=CCC3CC2C3(C)C.CC45CCC(CC4)C(C)(C)O5,water,298,-5.335685932,mol/L,426.7290000000003,9.051700000000002,9.23,0.0,1.0
CC1=CCC2CC1C2(C)C.CC3(C)OC4(C)CCC3CC4.CC5(C)C6CCC(C6)C5=C.CC7(C)C8CCC7(C)C(=O)C8,water,298,-5.472618449,mol/L,578.9660000000003,11.14319999999999,26.3,0.0,2.0
CCC(=O)/C=C/C1=C(C)CCCC1(C)C,water,298,-5.029002964,mol/L,206.32899999999992,4.048300000000003,17.07,0.0,1.0
CCCCCCCCCCCCO,water,298,-4.984746452,mol/L,186.33899999999997,3.8996000000000035,20.23,1.0,1.0
[Cu+].[S-]C#N,water,298,-4.80401091,mol/L,121.631,0.01188,23.79,0.0,2.0
CCC(Cc1ccc(C)cc1)(N(C)C)C(=O)c2ccc(cc2)N3CCOCC3,water,298,-5.301637583,mol/L,380.5320000000002,3.9674200000000033,32.78,0.0,4.0
Nc1ccc(O[P](=S)(Oc2ccc(N)cc2)Oc3ccc(N)cc3)cc1,water,298,-5.309407137,mol/L,387.4010000000001,4.1945000000000014,105.75,3.0,7.0
O=[P](Oc1ccccc1)(Oc2ccccc2)Oc3ccccc3,water,298,-5.234847501,mol/L,326.288,5.331500000000003,44.760000000000005,0.0,4.0
CC(=C)C(=O)OCCOc1ccc(cc1)C(C)(C)c2ccc(OCCOC(=O)C(C)=C)cc2,water,298,-5.379201886,mol/L,452.5470000000003,5.0087000000000055,71.06,0.0,6.0
CC1(C)CCC[C@@]2(C)[C@H]1CC[C@@]3(C)OCC[C@H]23,water,298,-5.099487786,mol/L,236.39899999999994,4.408000000000004,9.23,0.0,1.0
CC1(C)CCCC2(C)C1CCC3(C)OCCC23,water,298,-5.099487786,mol/L,236.39899999999994,4.408000000000004,9.23,0.0,1.0
CCCCC\C(=C/c1ccccc1)C(OCC)OCC,water,298,-5.172056518,mol/L,276.42,5.049400000000005,18.46,0.0,2.0
[O--].[O--].[O--].[Sb+3].[Sb+3],water,298,-5.195150942,mol/L,291.517,-1.118,85.5,0.0,0.0
[La+3].[La+3].[O-]C([O-])=O.[O-]C([O-])=O.[O-]C([O-])=O,water,298,-5.395892116,mol/L,457.8360000000003,-7.341000000000001,189.57,0.0,9.0
[La+3].[La+3].[O-]C([O-])=O.[O-]C([O-])=O.[O-]C([O-])=O,water,298,-5.403031364,mol/L,457.8360000000003,-7.341000000000001,189.57,0.0,9.0
CCCCC(CC)COC(=O)CS[Sn](C)(SCC(=O)OCC(CC)CCCC)SCC(=O)OCC(CC)CCCC,water,298,-5.616141043,mol/L,743.7269999999997,9.033500000000005,78.90000000000002,0.0,9.0
[nH]1c2ccccc2c3ccccc13,water,298,-4.967992339,mol/L,167.21099999999998,3.3211000000000013,15.79,1.0,0.0
CC(=O)CC(=O)Nc1ccc(cc1C)c2ccc(NC(=O)CC(C)=O)c(C)c2,water,298,-5.325018234,mol/L,380.4440000000002,3.805640000000002,92.34,2.0,4.0
CC(=O)Nc1ccc(NC(=O)c2cc3ccccc3cc2O)cc1,water,298,-5.250349512,mol/L,320.348,3.7561000000000018,78.43,3.0,3.0
Cc1ccc(Cl)cc1NC(=O)c2cc3ccccc3cc2O,water,298,-5.238559032,mol/L,311.7680000000001,4.759520000000003,49.33,2.0,2.0
[OH-].[OH-].[OH-].[Nd+3],water,298,-5.035343004,mol/L,195.26100000000002,-0.5303999999999999,90.0,0.0,3.0
[OH-].[OH-].[Mg++],water,298,-4.515390066,mol/L,58.319,-0.7343999999999999,60.0,0.0,2.0
[Mg++].C[O-].C[O-],water,298,-4.685958002,mol/L,86.373,-2.4277999999999986,46.12,0.0,2.0
CC(C)(C)NSc1sc2ccccc2n1,water,298,-5.136722389,mol/L,238.38100000000003,3.6915000000000022,24.92,1.0,4.0
[Te],water,298,-4.875401753,mol/L,127.6,-0.3808,0.0,0.0,0.0
CC1COCc2cc3c(cc12)C(C)(C)C(C)C3(C)C,water,298,-5.184414208,mol/L,258.405,4.525200000000004,9.23,0.0,1.0
[Ba++].Cc1cc(N\N=C\2C(=O)C=Cc3ccccc23)c(cc1Cl)[S]([O-])(=O)=O.Cc4cc(N\N=C\5C(=O)C=Cc6ccccc56)c(cc4Cl)[S]([O-])(=O)=O,water,298,-5.7287712,mol/L,888.954,5.548440000000005,197.32,2.0,12.0
CC1COCc2cc3c(cc12)C(C)(C)C(C)C3(C)C,water,298,-5.194816969,mol/L,258.405,4.525200000000004,9.23,0.0,1.0
CCCC(=O)OCCC(C)CCC=C(C)C,water,298,-5.142612081,mol/L,226.35999999999996,4.102300000000004,26.3,0.0,2.0
COc1ccc(cc1)C(=O)CSc2cccc(OC)c2,water,298,-5.252043535,mol/L,288.368,3.6788000000000025,35.53,0.0,4.0
CCCCC(CC)COC(=O)C(C)=C,water,298,-5.093215872,mol/L,198.30599999999995,3.3221000000000016,26.3,0.0,2.0
COc1ccc(NC(=O)c2cc3ccccc3cc2O)cc1,water,298,-5.263224655,mol/L,293.322,3.806300000000002,58.56,2.0,3.0
CC(c1ccc(OC#N)cc1)c2ccc(OC#N)cc2,water,298,-5.217950889,mol/L,264.284,3.5581600000000018,66.03999999999999,0.0,4.0
[Ca++].CCCCCCC(O)CCCCCCCCCCC([O-])=O.CCCCCCC(O)CCCCCCCCCCC([O-])=O,water,298,-5.601399905,mol/L,639.0280000000001,7.55640000000001,120.72,2.0,6.0
CCCCCCCC[Sn](Cl)(Cl)CCCCCCCC,water,298,-5.415041201,mol/L,416.06500000000034,7.627200000000006,0.0,0.0,0.0
[O--].[O--].[O--].[Dy+3].[Dy+3],water,298,-5.367585356,mol/L,372.997,-0.3564,85.5,0.0,0.0
CCCCCCCCCCCC=O,water,298,-5.061459548,mol/L,184.32299999999998,4.106200000000003,17.07,0.0,1.0
C[Si]1(C)O[Si](C)(C)O[Si](C)(C)O1,water,298,-5.143141711,mol/L,222.46499999999995,2.1552,27.69,0.0,3.0
CC(=C)CC(C)(C)C.N(c1ccccc1)c2ccccc2,water,298,-5.245270469,mol/L,281.44300000000004,6.428900000000006,12.03,1.0,1.0
[OH-].[OH-].[Mg++],water,298,-4.564412944,mol/L,58.319,-0.7343999999999999,60.0,0.0,2.0
[Mg++].C[O-].C[O-],water,298,-4.73498088,mol/L,86.373,-2.4277999999999986,46.12,0.0,2.0
CCC1(C)Nc2cccc3cccc(N1)c23,water,298,-3.247760565,mol/L,212.296,3.8034000000000017,24.06,2.0,2.0
COc1ccc(cc1)C(=O)CSc2cccc(OC)c2,water,298,-5.26710095,mol/L,288.368,3.6788000000000025,35.53,0.0,4.0
[O--].[O--].[O--].[Sb+3].[Sb+3],water,298,-5.277143165,mol/L,291.517,-1.118,85.5,0.0,0.0
CCCCC(CC)C(=O)OCCOCCOCCOC(=O)C(CC)CCCC,water,298,-5.420152134,mol/L,402.57200000000023,4.538800000000004,71.06,0.0,6.0
CC(=C)c1ccc(cc1)C(=O)C(C)(C)O.CC(C)(O)C(=O)c2ccc(cc2)C3(C)CC(C)(C)c4cc(ccc34)C(=O)C(C)(C)O.CC(C)(O)C(=O)c5ccc(cc5)C6(C)CC(C)(C)c7ccc(cc67)C(=O)C(C)(C)O,water,298,-5.827328879,mol/L,1021.3449999999998,11.835499999999987,186.49999999999997,5.0,10.0
C[C@]12CC[C@H]3[C@@H](CCc4cc(O)ccc34)[C@@H]1CC[C@@H]2O,water,298,-5.259096712,mol/L,272.388,3.6092000000000026,40.46,2.0,2.0
Nc1c(ccc2C(=O)c3ccccc3C(=O)c12)c4oc5cc6C(=O)c7ccccc7C(=O)c6cc5n4,water,298,-5.496412982,mol/L,470.4400000000002,4.627800000000002,120.33,1.0,7.0
CCOc1ccc(NC(=O)c2cc3ccccc3cc2O)cc1,water,298,-5.311540545,mol/L,307.34900000000005,4.196400000000002,58.56,2.0,3.0
COc1cc(OC)c(NC(=O)c2cc3ccccc3cc2O)cc1Cl,water,298,-5.377540581,mol/L,357.793,4.468300000000003,67.79,2.0,4.0
O=C(Nc1cccc2C(=O)c3c4[nH]c5c(cc(NC(=O)c6ccccc6)c7C(=O)c8ccccc8C(=O)c57)c4ccc3C(=O)c12)c9ccccc9,water,298,-5.647161854,mol/L,665.6610000000003,6.754900000000005,142.26999999999998,3.0,6.0
COc1ccc(cc1)C(=O)CSc2cccc(OC)c2,water,298,-5.284725265,mol/L,288.368,3.6788000000000025,35.53,0.0,4.0
COc1ccc(cc1)C(=O)CSc2cccc(OC)c2,water,298,-5.293516952,mol/L,288.368,3.6788000000000025,35.53,0.0,4.0
C1CCC2CCCCC2C1,water,298,-4.991458593,mol/L,138.254,3.3668000000000022,0.0,0.0,0.0
O=C1c2ccccc2C(=O)c3c4Nc5ccc6c7ccccc7C(=O)c8ccc(c4ccc13)c5c68,water,298,-5.506567843,mol/L,449.4650000000002,6.354100000000004,67.0,1.0,3.0
CC1(C)CO[P](=S)(OC1)O[P]2(=S)OCC(C)(C)CO2,water,298,-5.393383395,mol/L,346.34700000000015,3.5980000000000025,46.150000000000006,0.0,7.0
CC(C)C1CCC(=CC1)C,water,298,-5.010343937,mol/L,138.254,3.3888000000000025,0.0,0.0,0.0
OC(=O)CCCCCNc1nc(NCCCCCC(O)=O)nc(NCCCCCC(O)=O)n1,water,298,-2.542361308,mol/L,468.5550000000003,3.0423,186.65999999999997,6.0,9.0
CC(C)CCCCCCCOC(=O)C=C,water,298,-5.199912698,mol/L,212.33299999999997,3.712200000000003,26.3,0.0,2.0
[Pr+3].[Pr+3].[O-]C([O-])=O.[O-]C([O-])=O.[O-]C([O-])=O,water,298,-5.537386746,mol/L,461.84000000000026,-7.341000000000001,189.57,0.0,9.0
CCCCCCCCCC(C)C=O,water,298,-5.151636178,mol/L,184.323,3.962100000000003,17.07,0.0,1.0
CN(C)c1ccc(cc1)C(c2ccc(cc2)N(C)C)c3ccc(cc3)N(C)C,water,298,-5.458398413,mol/L,373.5440000000001,5.064800000000004,9.72,0.0,3.0
[Gd+3].[Gd+3].[O-]C(=O)C([O-])=O.[O-]C(=O)C([O-])=O.[O-]C(=O)C([O-])=O,water,298,-5.648400548,mol/L,578.5540000000003,-10.5414,240.77999999999997,0.0,12.0
CCCCCCCCCCCCCCO,water,298,-5.217267249,mol/L,214.39299999999994,4.679800000000005,20.23,1.0,1.0
[Y],water,298,-4.834987719,mol/L,88.906,-0.0025,0.0,0.0,0.0
O=C1c2cccc(Sc3ccccc3)c2C(=O)c4c(Sc5ccccc5)cccc14,water,298,-5.517335043,mol/L,424.5460000000001,6.764400000000005,34.14,0.0,4.0
[O--].[O--].[O--].[O--].[O--].[O--].[O--].[O--].[O--].[O--].[O--].[Pr+3].[Pr+3].[Pr+3].[Pr+3].[Pr+3].[Pr+3],water,298,-5.905407865,mol/L,1021.437,-1.3068,313.5,0.0,0.0
CC(C)(c1cc(Br)c(O)c(Br)c1)c2cc(Br)c(O)c(Br)c2,water,298,-5.635128551,mol/L,543.875,6.4737000000000045,40.46,2.0,2.0
Cc1cc(ccc1O)C2(CCCCC2)c3ccc(O)c(C)c3,water,298,-5.371522306,mol/L,296.40999999999997,4.964840000000005,40.46,2.0,2.0
[La+3].[La+3].[O-]C([O-])=O.[O-]C([O-])=O.[O-]C([O-])=O,water,298,-5.560339394,mol/L,457.8360000000003,-7.341000000000001,189.57,0.0,9.0
[La+3].[La+3].[O-]C([O-])=O.[O-]C([O-])=O.[O-]C([O-])=O,water,298,-5.567288253,mol/L,457.8360000000003,-7.341000000000001,189.57,0.0,9.0
[Ca++].Cc1ccc(N\N=C\2C(=O)C(=Cc3ccccc23)C([O-])=O)c(c1)[S]([O-])(=O)=O,water,298,-5.548642222,mol/L,424.4470000000002,0.0505199999999999,138.79,1.0,8.0
COc1ccc(cc1)C(=O)CSc2cccc(OC)c2,water,298,-5.377880131,mol/L,288.368,3.6788000000000025,35.53,0.0,4.0
CC(C)CCCC(C)CCCC(C)(O)C#C,water,298,-5.271818382,mol/L,224.38799999999998,4.003300000000003,20.23,1.0,1.0
CCCCC(CC)COC(=O)\C=C\C(=O)OCC(CC)CCCC,water,298,-5.456575257,mol/L,340.5040000000002,5.061800000000005,52.60000000000001,0.0,4.0
CC(C)(COC(=O)c1ccccc1)COC(=O)c2ccccc2,water,298,-5.422780359,mol/L,312.365,3.726600000000003,52.6,0.0,4.0
CC(C)(COC(=O)c1ccccc1)COC(=O)c2ccccc2,water,298,-5.430204377,mol/L,312.365,3.726600000000003,52.6,0.0,4.0
CC(C)(COC(=O)c1ccccc1)COC(=O)c2ccccc2,water,298,-5.441583922,mol/L,312.365,3.726600000000003,52.6,0.0,4.0
[Ca++].O[PH]([O-])=O.O[PH]([O-])=O,water,298,-5.253149755,mol/L,202.052,-2.9234000000000004,120.72,2.0,4.0
CCOCOC1CCCCCCCCCCC1,water,298,-5.335319968,mol/L,242.40299999999988,4.670300000000005,18.46,0.0,2.0
Cc1cc(c(O)c(c1)C(C)(C)C)C(C)(C)C,water,298,-5.301732195,mol/L,220.35599999999997,4.295620000000003,20.23,1.0,1.0
CC(C)(c1cc(Br)c(O)c(Br)c1)c2cc(Br)c(O)c(Br)c2,water,298,-5.694106411,mol/L,543.875,6.4737000000000045,40.46,2.0,2.0
CC(C)CCOC(=O)c1ccccc1C(=O)OCCC(C)C,water,298,-5.444898911,mol/L,306.40200000000004,4.092400000000004,52.60000000000001,0.0,4.0
[O--].[O--].[O--].[Sb+3].[Sb+3],water,298,-5.439358021,mol/L,291.517,-1.118,85.5,0.0,0.0
[Zn++].CCN(CC)C([S-])=S.CCN(CC)C([S-])=S,water,298,-5.533333117,mol/L,361.9420000000001,2.317500000000001,6.48,0.0,4.0
O=[P](Oc1ccccc1)(Oc2ccccc2)Oc3cccc(O[P](=O)(Oc4ccccc4)Oc5ccccc5)c3,water,298,-5.738072007,mol/L,574.4620000000002,8.9764,89.52000000000001,0.0,8.0
[nH]1c2ccccc2c3ccccc13,water,298,-5.21042762,mol/L,167.21099999999998,3.3211000000000013,15.79,1.0,0.0
CCOc1nc(NC)nc(NC(=O)N[S](=O)(=O)c2ccccc2C(=O)OC)n1,water,298,-5.600382826,mol/L,410.4120000000002,0.6089999999999994,161.5,3.0,10.0
O=C(OC1CCCCC1)c2ccccc2C(=O)OC3CCCCC3,water,298,-5.512605542,mol/L,330.4240000000002,4.665600000000004,52.60000000000001,0.0,4.0
Cc1cc(c(O)c(c1)C(C)(C)C)C(C)(C)C,water,298,-5.338803507,mol/L,220.35599999999997,4.295620000000003,20.23,1.0,1.0
CC(=O)OC1(CCC2C3CCC4=CC(=O)CCC4(C)C3CCC12C)C(C)=O,water,298,-5.566810733,mol/L,372.50500000000017,4.409200000000004,60.440000000000005,0.0,4.0
CCCCCCCC/C=C/CCCCCCCC(=O)N(CCO)CCO,water,298,-5.567720212,mol/L,369.5900000000001,4.837100000000006,60.77000000000001,2.0,3.0
CCOC(=O)C(=Cc1ccc(cc1)C=C(C(=O)OCC)C(=O)OCC)C(=O)OCC,water,298,-5.621635269,mol/L,418.4420000000003,2.705800000000001,105.20000000000003,0.0,8.0
CC(C)CCCCCCCCCCO,water,298,-5.301824028,mol/L,200.36599999999996,4.145600000000004,20.23,1.0,1.0
O=C(OCCc1ccccc1)/C=C/c2ccccc2,water,298,-5.401939627,mol/L,252.31300000000002,3.4857000000000022,26.3,0.0,2.0
CCCCCCCCCCCCCCCCCC(=O)NCCO,water,298,-5.515281581,mol/L,327.553,5.356400000000005,49.33,2.0,2.0
Oc1cc2ccccc2cc1C(=O)Nc3ccc(Cl)cc3,water,298,-5.473838643,mol/L,297.741,4.451100000000001,49.33,2.0,2.0
N#Cc1ccccc1,water,298,-5.01335975,mol/L,103.12399999999997,1.5582799999999999,23.79,0.0,1.0
CCCCC(Cc1cc(c(O)c(c1)C(C)(C)C)C(C)(C)C)(C(=O)OC2CC(C)(C)N(C)C(C)(C)C2)C(=O)OC3CC(C)(C)N(C)C(C)(C)C3,water,298,-5.835720369,mol/L,685.047,9.095500000000005,79.31,1.0,7.0
[Gd+3].[Gd+3].[O-]C(=O)C([O-])=O.[O-]C(=O)C([O-])=O.[O-]C(=O)C([O-])=O,water,298,-5.762343901,mol/L,578.5540000000003,-10.5414,240.77999999999997,0.0,12.0
CCCCCCCCCCCCO,water,298,-5.270303761,mol/L,186.33899999999997,3.8996000000000035,20.23,1.0,1.0
CCCCCCC(O)CCCCCCCCCCCO,water,298,-5.457124626,mol/L,286.4999999999999,5.211000000000006,40.46,2.0,2.0
Fc1ccccc1C(=O)c2cc(Cl)ccc2NC(=O)CBr,water,298,-5.569345786,mol/L,370.6050000000001,4.043500000000002,46.17,1.0,2.0
Fc1ccccc1C(=O)c2cc(Cl)ccc2NC(=O)CBr,water,298,-5.571962026,mol/L,370.6050000000001,4.043500000000002,46.17,1.0,2.0
C[C@@H]1CC[C@H]2C(C)(C)C3CC12CCC3(C)OC(C)=O,water,298,-5.426641039,mol/L,264.40899999999993,4.180600000000004,26.3,0.0,2.0
Fc1ccccc1C(=O)c2cc(Cl)ccc2NC(=O)CBr,water,298,-5.576357757,mol/L,370.6050000000001,4.043500000000002,46.17,1.0,2.0
CCCCCCC(O)CCCCCCCCCCC(O)=O,water,298,-5.488370089,mol/L,300.4829999999999,5.303300000000005,57.53,2.0,2.0
[Zn++].CCCCCCC(O)CCCCCCCCCCC([O-])=O.CCCCCCC(O)CCCCCCCCCCC([O-])=O,water,298,-5.835618668,mol/L,664.34,7.93470000000001,120.72,2.0,6.0
Fc1ccccc1C(=O)c2cc(Cl)ccc2NC(=O)CBr,water,298,-5.584383961,mol/L,370.6050000000001,4.043500000000002,46.17,1.0,2.0
O=C1n2c3ccccc3nc2c4ccc5c6nc7ccccc7n6C(=O)c8ccc1c4c58,water,298,-5.633055848,mol/L,412.40800000000013,4.344000000000002,68.74000000000001,0.0,6.0
[Ba++].Cc1ccc(N\N=C\2C(=O)C(=Cc3ccccc23)C([O-])=O)c(c1)[S]([O-])(=O)=O,water,298,-5.735147106,mol/L,521.6970000000002,0.0505199999999999,138.79,1.0,8.0
CC(C)(c1ccc(OC#N)cc1)c2ccc(OC#N)cc2,water,298,-5.469558378,mol/L,278.311,3.732260000000003,66.03999999999999,0.0,4.0
CCCCCCCCCCCCCCCc1cccc(O)c1.CCCCCCC\C=C/CCCCCCc2cccc(O)c2.CCCC/C=C\C\C=C/CCCCCCc3cccc(O)c3.Oc4cccc(CCCCCC\C=C/C/C=C\CCC=C)c4,water,298,-6.109599074,mol/L,1205.976,26.759600000000063,80.92,4.0,4.0
CCCCCCCCCCCC#N,water,298,-5.289969947,mol/L,181.32299999999998,4.430880000000004,23.79,0.0,1.0
Cc1cc(Cc2cc(C)cc(c2O)C(C)(C)C)c(O)c(c1)C(C)(C)C,water,298,-5.568338217,mol/L,340.5070000000001,5.900440000000006,40.46,2.0,2.0
[nH]1c2ccccc2c3ccccc13,water,298,-5.264223452,mol/L,167.21099999999998,3.3211000000000013,15.79,1.0,0.0
[F-].[F-].[F-].[Nd+3],water,298,-5.348494822,mol/L,201.234,-8.988,0.0,0.0,0.0
C1CCC2CCCCC2C1,water,298,-5.191141332,mol/L,138.254,3.3668000000000022,0.0,0.0,0.0
C1CCC2CCCCC2C1,water,298,-5.191775944,mol/L,138.254,3.3668000000000022,0.0,0.0,0.0
[Ca++].CCCCCCC(O)CCCCCCCCCCC([O-])=O.CCCCCCC(O)CCCCCCCCCCC([O-])=O,water,298,-5.861037216,mol/L,639.0280000000001,7.55640000000001,120.72,2.0,6.0