Solute,Solvent,Temperature_K,Solubility,Units,MW,LogP,TPSA,HBD,HBA
OC(=O)COc1c(Cl)ccc(Cl)c1Cl,water,298,-2.6198,mol/L,255.484,3.1102000000000007,46.53,1.0,2.0
COCC(=O)c1ccccc1,water,298,-0.7616,mol/L,150.177,1.5157,26.3,0.0,2.0
[Cl-].Cl/C=C/C[N+]12CN3CN(CN(C3)C1)C2,water,298,0.0829,mol/L,251.16099999999994,-2.7484999999999955,9.72,0.0,3.0
C\C=C/CO,water,298,0.3621,mol/L,72.107,0.5548,20.23,1.0,1.0
[O-][N+](=O)C(CCl)([N+]([O-])=O)[N+]([O-])=O,water,298,-0.2586,mol/L,199.506,-0.29090000000000016,129.42000000000002,0.0,6.0
CCC(CC)(C(O)=O)C(CC)(CC)C(O)=O,water,298,-2.9644,mol/L,230.30399999999995,2.7684000000000006,74.6,2.0,2.0
CCCCOCCC(=O)OC,water,298,-1.2909,mol/L,160.213,1.3662,35.53,0.0,3.0
CCCCCCC(C)O,water,298,-2.0355,mol/L,130.231,2.3376000000000006,20.23,1.0,1.0
CCSc1nc(NC(C)C)nc(NC(C)C)n1,water,298,-4.2031,mol/L,255.39100000000002,2.624200000000001,62.730000000000004,2.0,6.0
C\C=C/C=O,water,298,0.412,mol/L,70.09100000000001,0.7614000000000001,17.07,0.0,1.0
CC(C)C(=O)Oc1ccc(cc1)[N+]([O-])=O,water,298,-3.9588,mol/L,209.20099999999996,2.1562,69.44,0.0,4.0
CCCCOC(=O)CCOC,water,298,-1.2135,mol/L,160.21299999999997,1.3662,35.53,0.0,3.0
OC(=O)C[C@@H](Cl)C(O)=O,water,298,0.2047,mol/L,152.53300000000002,0.15310000000000018,74.6,2.0,2.0
[O-][N+](=O)c1cc2cccnc2c3ncccc13,water,298,-3.9172,mol/L,225.20699999999997,2.6912000000000003,68.92,0.0,4.0
CCC1=CNC(=O)NC1=O,water,298,-1.9424,mol/L,140.14199999999997,-0.3744,65.72,2.0,2.0
CNC(CC(O)=O)C(O)=O,water,298,-0.7544,mol/L,147.13,-0.8662999999999996,86.63,3.0,3.0
OC(=O)c1ccccc1CC(=O)c2ccccc2C(O)=O,water,298,-2.791,mol/L,284.267,2.5084,91.66999999999999,2.0,3.0
OC(=O)c1ccc(c(c1)C(O)=O)[N+]([O-])=O,water,298,-1.3391,mol/L,211.12899999999996,0.9911999999999999,117.74000000000001,2.0,4.0
Clc1ccc(cc1)N=Nc2ccccc2,water,298,-5.7023,mol/L,216.671,4.7554000000000025,24.72,0.0,2.0
[O-][N+](=O)c1oc(cc1)\C=N\N2CCCOC2=O,water,298,-3.4757,mol/L,239.18699999999993,1.3639999999999999,98.18,0.0,6.0
O=C1Cc2c(O1)ccc3ccccc23,water,298,-2.7078,mol/L,184.194,2.3013000000000003,26.3,0.0,2.0
CC[C@@H]1[C@@H](O)N2[C@H]3C[C@@H]1C4C(O)[C@@]5(C[C@H]24)[C@H]3N(C)c6ccccc56,water,298,-2.8266,mol/L,326.44000000000005,1.5545,46.940000000000005,2.0,4.0
CCCCCCCCCCC(C(O)=O)C(O)=O,water,298,-3.99,mol/L,244.331,3.302600000000001,74.6,2.0,2.0
Cc1ccc(O)c(CO)c1,water,298,-0.3143,mol/L,138.166,1.1929199999999998,40.46,2.0,2.0
CCOC(=O)c1[nH]c(C=O)c(CC)c1C,water,298,-2.7186,mol/L,209.24499999999995,1.87472,59.160000000000004,1.0,3.0
OC(=O)c1cccnc1Nc2cccc(c2)C(F)(F)F,water,298,-4.1718,mol/L,282.221,3.542200000000001,62.22,2.0,3.0
CC(=O)CC1CCCCN1,water,298,-0.4509,mol/L,141.214,1.1076,29.1,1.0,2.0
COC(C)CCOC(C)=O,water,298,-1.5022,mol/L,146.18599999999998,0.9744999999999999,35.53,0.0,3.0
CC\C(NO)=C(\CC)N=O,water,298,-2.5525,mol/L,144.17399999999998,1.7631999999999999,61.69,2.0,4.0
O=[P](N1CCOCC1)(N2CCOCC2)N3CCOCC3,water,298,0.2984,mol/L,305.31500000000005,0.09110000000000129,54.480000000000004,0.0,4.0
Cc1cnc(N[S](=O)(=O)c2ccc(N)cc2)nc1C,water,298,-3.1435,mol/L,278.33700000000005,1.47644,97.97,2.0,5.0
CC1CCC(C)(C)C1,water,298,-4.4784,mol/L,112.216,2.832600000000001,0.0,0.0,0.0
CC1NC(=O)CNC1=O,water,298,0.2903,mol/L,128.131,-1.3790999999999998,58.2,2.0,2.0
CN(C=C)N=O,water,298,-0.4579,mol/L,86.094,0.7431,32.67,0.0,2.0
O=C1NC=NC=C1,water,298,0.586,mol/L,96.08899999999998,-0.23009999999999997,45.75,1.0,2.0
OC1=C(Br)C=CC=CC1=O,water,298,-2.4352,mol/L,201.019,1.5148999999999997,37.3,1.0,2.0
CC(=O)C1(C)CO1,water,298,0.3797,mol/L,100.11699999999999,0.36429999999999996,29.6,0.0,2.0
CCSC(=S)NCC(O)=O,water,298,-1.0882,mol/L,179.266,0.6985999999999999,49.33,2.0,3.0
OC[C@H]1O[C@@H](O[C@@H]2[C@@H](CO)O[C@](O)(CO)[C@H]2O)[C@H](O)[C@@H](O)[C@H]1O,water,298,0.3487,mol/L,342.29699999999997,-5.395599999999993,189.52999999999997,8.0,11.0
CCN(CC)C(=O)OC,water,298,-0.2918,mol/L,131.17499999999998,1.0946,29.540000000000003,0.0,2.0
OC(=O)CCC(=O)c1cccc2ccccc12,water,298,-3.4833,mol/L,228.247,2.8873000000000015,54.37,1.0,2.0
CSc1nc(NC(C)C)nc(N=[N+]=[N-])n1,water,298,-3.6124,mol/L,225.281,2.3556,99.46000000000001,1.0,6.0
CC1(C)[C@@H]2CC[C@@](C)(C2)C1=O,water,298,-1.8507,mol/L,152.237,2.401700000000001,17.07,0.0,1.0
N[P](N)(=O)c1ccccc1,water,298,-1.1482,mol/L,156.125,0.42239999999999955,69.11,2.0,1.0
NCCCNc1ccccc1,water,298,-1.6543,mol/L,150.22499999999997,1.4472999999999998,38.05,2.0,2.0
CCCN(CCC)c1c(cc(cc1[N+]([O-])=O)[S](C)(=O)=O)[N+]([O-])=O,water,298,-5.7601,mol/L,345.3770000000001,2.5329000000000006,123.66,0.0,7.0
OC(=O)c1ccccc1C(=O)Nc2ccccc2,water,298,-4.0814,mol/L,241.246,2.637100000000001,66.39999999999999,2.0,2.0
[I-].CCN1C=CC(=CC=Cc2cc[n+](CC)c3ccccc23)c4ccccc14,water,298,-2.6816,mol/L,480.39300000000026,2.6016000000000012,7.12,0.0,1.0
CC(=O)Nc1ccccc1O,water,298,-0.4471,mol/L,151.16499999999996,1.3505999999999998,49.33,2.0,2.0
[O-]C(=O)c1cccc(Cl)c1[N+]([O-])=O,water,298,-2.6323,mol/L,200.55699999999996,0.6116999999999999,83.26999999999998,0.0,4.0
CCOC[C@H](N)C(O)=O,water,298,0.524,mol/L,133.147,-0.5651999999999995,72.55000000000001,2.0,3.0
OC(=O)CCSSCCC(O)=O,water,298,-0.9301,mol/L,210.27599999999998,1.3172000000000001,74.6,2.0,4.0
C/C=C/C#N,water,298,-0.4287,mol/L,67.09100000000001,1.08608,23.79,0.0,1.0
CCCC(O)C=C,water,298,-0.5993,mol/L,100.16099999999999,1.3334,20.23,1.0,1.0
CC(C)C(O)C=C,water,298,-0.515,mol/L,100.16099999999999,1.1893,20.23,1.0,1.0
CCC(O)\C=C\C,water,298,-0.4198,mol/L,100.16099999999999,1.3334,20.23,1.0,1.0
OC(=O)C(=O)C(c1ccccc1)c2ccccc2,water,298,-2.3354,mol/L,240.258,2.472200000000001,54.37,1.0,2.0
CN(C)C(=O)Nc1cccc(OC(=O)NC(C)(C)C)c1,water,298,-2.9342,mol/L,279.34,2.6670000000000007,70.67,2.0,3.0
O=[P](Oc1ccccc1)(N2CCOCC2)N3CCOCC3,water,298,0.3925,mol/L,312.30600000000004,1.8378999999999994,51.239999999999995,0.0,4.0
CCCCOC(=O)CCO,water,298,-1.2899,mol/L,146.18599999999998,0.7121,46.53,1.0,3.0
CCC(C)C(C)(C)O,water,298,-0.8707,mol/L,116.20399999999998,1.8034,20.23,1.0,1.0
OC(=O)CC(SC(CC(O)=O)C(O)=O)C(O)=O,water,298,-0.4908,mol/L,266.227,-0.4245999999999999,149.2,4.0,5.0
Cc1cccc(O)c1[N+]([O-])=O,water,298,-1.64,mol/L,153.137,1.6088200000000001,63.37,1.0,3.0
ClCC(=O)NC(=O)CCl,water,298,-2.2304,mol/L,169.99499999999998,0.10679999999999984,46.17,1.0,2.0
C1CCC(CC1)N(Sc2sc3ccccc3n2)C4CCCCC4,water,298,-6.7886,mol/L,346.5650000000002,6.270800000000006,16.130000000000003,0.0,4.0
COc1cc(C([O-])=O)c(cc1OC)[N+]([O-])=O,water,298,-0.7543,mol/L,226.164,-0.02450000000000019,101.72999999999999,0.0,6.0
CC(=O)Nc1ccc(OC(=O)c2ccccc2OC(C)=O)cc1,water,298,-4.1949,mol/L,313.309,2.789500000000001,81.69999999999999,1.0,5.0
O=[S](=O)(N1CCCCC1)c2ccccc2,water,298,-2.5365,mol/L,225.31300000000002,1.8612000000000002,37.38,0.0,2.0
CCN(CC)C(C#N)c1ccccc1,water,298,-0.9738,mol/L,188.27400000000003,2.5930800000000005,27.03,0.0,2.0
CC(C(O)=O)c1ccc(c(F)c1)c2ccccc2,water,298,-4.4848,mol/L,244.265,3.6808000000000023,37.3,1.0,1.0
[O-][N+](=O)Cc1ccc2ccccc2n1,water,298,-2.0545,mol/L,188.186,2.0115,56.03,0.0,3.0
CCO[P](=S)(OCC)N1C(=O)c2ccccc2C1=O,water,298,-3.3522,mol/L,299.28800000000007,2.5801000000000007,55.84,0.0,5.0
OC(=O)C(S)CCC(S)C(O)=O,water,298,-2.4758,mol/L,210.27600000000004,0.5326,74.6,4.0,4.0
CCSC(=S)N[C@@H](CC(O)=O)C(O)=O,water,298,-1.3863,mol/L,237.302,0.5419,86.63,3.0,4.0
ClCC[S](=O)(=O)CCOCC[S](=O)(=O)CCCl,water,298,-1.9408,mol/L,327.2510000000001,0.31020000000000025,77.51,0.0,5.0
COc1cc(ccc1C(O)=O)C(O)=O,water,298,-1.9916,mol/L,196.158,1.0916,83.83000000000001,2.0,3.0
CCCCC(N)C(O)=O,water,298,-1.061,mol/L,131.17499999999998,0.5884999999999998,63.32,2.0,2.0
CC(=O)Nc1ccc(Cl)cc1C,water,298,-2.3097,mol/L,183.63799999999998,2.606820000000001,29.1,1.0,1.0
CCCCC1=C(C)NC(=NC1=O)N(C)C,water,298,-2.2416,mol/L,209.29299999999998,1.48692,48.99,1.0,3.0
CN1C2CCC1CC(C2)OC(=O)C(CO[S](O)(=O)=O)c3ccccc3,water,298,-1.5675,mol/L,369.4390000000001,1.7579999999999998,93.13999999999999,1.0,6.0
CC1=C(SCCO1)C(=O)Nc2ccccc2,water,298,-3.2043,mol/L,235.30800000000002,2.620000000000001,38.33,1.0,3.0
CC1=C(C(=O)Nc2ccccc2)[S](=O)(=O)CCO1,water,298,-2.2809,mol/L,267.306,1.3016,72.47,1.0,4.0
OC(=O)CC1CCCCC1,water,298,-1.6935,mol/L,142.19799999999998,2.0414000000000003,37.3,1.0,1.0
CCCCCCCCCCCCCCCCNC(=O)C(C)O,water,298,-3.6512,mol/L,313.52599999999995,4.964700000000005,49.33,2.0,2.0
CCCCCNC(=O)C(C)O,water,298,-0.3825,mol/L,159.22899999999998,0.6735999999999998,49.33,2.0,2.0
OCC(O)C1OC(Oc2ccccc2)C(O)C(O)C1O,water,298,-1.5537,mol/L,286.28000000000003,-1.7738000000000003,119.61000000000001,5.0,7.0
O[P](O)(=O)c1cccc(c1)[N+]([O-])=O,water,298,0.6835,mol/L,203.08999999999997,0.3977999999999998,100.66999999999999,2.0,3.0
CCCCCCCCCCOC(=O)c1cccnc1,water,298,-3.1901,mol/L,263.381,4.379100000000004,39.19,0.0,3.0
CC(C)CC(NC=O)C(O)=O,water,298,-0.7328,mol/L,159.18499999999997,0.2316999999999998,66.4,2.0,2.0
C[S](=O)(=O)N[S](C)(=O)=O,water,298,0.0402,mol/L,173.215,-1.5047999999999992,80.31,1.0,4.0
CCCOC(=O)CCOC,water,298,-0.6598,mol/L,146.18599999999998,0.9761,35.53,0.0,3.0
COC(OC)\C=C/C(OC)OC,water,298,0.055,mol/L,176.21199999999996,0.7804,36.92,0.0,4.0
CN1CCC=C1C,water,298,0.1265,mol/L,97.16099999999999,1.2257,3.24,0.0,1.0
CC1(C)C(CCC1(C)C(O)=O)C(O)=O,water,298,-1.7701,mol/L,200.234,1.5981,74.6,2.0,2.0
NN[P](=S)(NN)c1ccccc1,water,298,-1.425,mol/L,202.22300000000004,-0.4519999999999993,76.1,4.0,3.0
Cc1cc(C)cc(OCC(O)=O)c1,water,298,-2.3527,mol/L,180.203,1.76684,46.53,1.0,2.0
Clc1ccc2oc3ccc(Cl)cc3c2c1,water,298,-7.2135,mol/L,237.08499999999998,4.892800000000002,13.14,0.0,1.0
CCCCCCNC(=O)C(C)O,water,298,-0.9487,mol/L,173.256,1.0636999999999999,49.33,2.0,2.0
CCCCOC(=O)C(C)OC(C)=O,water,298,-0.7536,mol/L,188.22299999999996,1.2813,52.6,0.0,4.0
CCc1nc2N(C)C(=O)N(C)C(=O)c2n1C,water,298,-1.5687,mol/L,222.24799999999996,-0.4669000000000001,61.82,0.0,6.0
NC(N)=NC(N)=Nc1ccc2ccccc2c1,water,298,-2.5497,mol/L,227.27100000000002,1.0594000000000003,102.78,3.0,1.0
OC(=O)CC1NC(=O)NC1=O,water,298,-1.1517,mol/L,158.113,-1.3309000000000002,95.5,3.0,3.0
Cc1ccc(cc1O)[N+]([O-])=O,water,298,-2.1851,mol/L,153.137,1.6088200000000001,63.37,1.0,3.0
NC(=O)SCC(=O)Nc1ccccc1,water,298,-1.3228,mol/L,210.258,1.437,72.19,2.0,3.0
CCOC(=O)C(CC(O)=O)=C(c1ccccc1)c2ccccc2,water,298,-2.1908,mol/L,310.349,3.5263000000000018,63.6,1.0,3.0
Cn1cnc2nc(Cl)nc(NN)c12,water,298,-1.1427,mol/L,198.61700000000002,0.30229999999999985,81.65,2.0,6.0
CCOC(=O)C1=C(C)OC(=C(C(=O)OCC)C1=O)C,water,298,-1.5255,mol/L,268.26499999999993,1.61004,82.81,0.0,6.0
Nc1cc(ccc1I)[N+]([O-])=O,water,298,-4.4216,mol/L,264.022,1.7816,69.16,1.0,3.0
OC(=O)CCC(N(CCC#N)CCC#N)C(O)=O,water,298,-0.2275,mol/L,253.25799999999998,0.4337600000000001,125.42000000000002,2.0,5.0
CSCCC(N(CCC#N)CCC#N)C(O)=O,water,298,-1.3279,mol/L,255.34299999999996,1.32206,88.12,1.0,5.0
CCCCCCCCOC(=O)C(C)O,water,298,-1.2726,mol/L,202.294,2.2709000000000006,46.53,1.0,3.0
O=C1COc2ccccc2N1,water,298,-2.5716,mol/L,149.14899999999997,1.0174999999999998,38.33,1.0,2.0
CCC\C(=C/C(O)=O)C(O)=O,water,298,-1.1538,mol/L,158.15299999999996,0.8821000000000001,74.6,2.0,2.0
CCOC(=O)N1CCN(CC1)C(=O)OCC,water,298,-0.7288,mol/L,230.26399999999995,0.9170000000000003,59.08,0.0,4.0
CC[C@@H](C)c1cccc([C@@H](C)CC)c1O,water,298,-5.0593,mol/L,206.32899999999995,4.4192000000000045,20.23,1.0,1.0
[O-][N+](=O)c1ccc2ccc3cccc4ccc1c2c34,water,298,-7.3213,mol/L,247.253,4.492200000000002,43.14,0.0,2.0
CCN(/N=C/c1oc(cc1)[N+]([O-])=O)C(N)=O,water,298,-2.9395,mol/L,226.19199999999995,0.9223000000000001,114.97,1.0,5.0
OC(=O)CCCCCc1ccccc1,water,298,-2.6026,mol/L,192.25800000000004,2.874100000000001,37.3,1.0,1.0
CCCCC(C)(O)CC,water,298,-1.7356,mol/L,130.23099999999997,2.3376,20.23,1.0,1.0
CC1=C(CCC1(C)C)C(O)=O,water,298,-2.8871,mol/L,154.209,2.2075,37.3,1.0,1.0
CO[P](=S)(OC)Oc1nc(Cl)c(Cl)cc1Cl,water,298,-4.831,mol/L,322.53700000000003,3.9379000000000017,40.58,0.0,5.0
CC(C)(C)CC(=O)OCC(=O)[C@@]12OC(C)(C)O[C@@H]1C[C@H]3[C@@H]4CCC5=CC(=O)C=C[C@]5(C)[C@@]4(F)[C@@H](O)C[C@]23C,water,298,-5.1244,mol/L,532.6490000000002,4.405900000000004,99.13000000000001,1.0,7.0
CCOC1CC1,water,298,-0.6407,mol/L,86.13400000000001,1.1853,9.23,0.0,1.0
Cn1cnc2N(C)C(=O)N(CC([O-])=O)C(=O)c12,water,298,-1.3769,mol/L,237.19499999999994,-2.816399999999999,101.94999999999999,0.0,8.0
C[C@@H]1NC(=O)[C@@H](C)NC1=O,water,298,-0.1528,mol/L,142.158,-0.9905999999999999,58.2,2.0,2.0
O=C1CCC(N1)C(=O)Nc2ccccc2,water,298,-1.3278,mol/L,204.229,0.9036999999999998,58.2,2.0,2.0
Oc1ccc(Sc2ccccc2)cc1,water,298,-2.7745,mol/L,202.27800000000005,3.543400000000002,20.23,1.0,2.0
CCOCOCOCC,water,298,-0.1277,mol/L,134.175,0.991,27.69,0.0,3.0
O=C1OCc2ccc3ccccc3c12,water,298,-3.3062,mol/L,184.194,2.510200000000001,26.3,0.0,2.0
OC(=O)CNC(=O)c1occc1,water,298,-0.7272,mol/L,169.136,0.0939999999999997,79.54,2.0,3.0
Nc1ccc(cc1)[S](=O)(=O)Nc2sc(cn2)C(O)=O,water,298,-2.8741,mol/L,299.333,1.2243000000000002,122.38,3.0,6.0
O[C@H]([C@H](O)[C@H](O)C(O)=O)[C@H](O)C(O)=O,water,298,-1.4774,mol/L,210.13799999999998,-3.4008,155.52,6.0,6.0
CCC(CC)(CC(O)=O)C(O)=O,water,298,-0.7962,mol/L,174.19599999999997,1.3521,74.6,2.0,2.0
OC(C(O)c1ccccc1)C(O)=O,water,298,-0.3063,mol/L,182.17499999999998,0.16549999999999992,77.75999999999999,3.0,3.0
CC=C(Cc1ccccc1)C(O)=O,water,298,-2.5648,mol/L,176.21499999999997,2.26,37.3,1.0,1.0
OC(=O)c1ccc(NC(=O)c2cccnc2)cc1,water,298,-3.0832,mol/L,242.234,2.0321,79.29,2.0,3.0
CCOC(OCC)C(C)=O,water,298,-0.2059,mol/L,146.18599999999998,0.9744999999999999,35.53,0.0,3.0
O=C1CCCCCNC(=O)CCCCCNC(=O)CCCCCNC(=O)CCCCCN1,water,298,-2.8126,mol/L,452.6400000000004,2.7064000000000012,116.4,4.0,4.0
CC(C)OC(=O)C(O)(c1ccc(Cl)cc1)c2ccc(Cl)cc2,water,298,-5.3544,mol/L,339.2180000000001,4.180900000000003,46.53,1.0,3.0
OC1=C(C2CCCc3ccccc23)C(=O)c4ccccc4O1,water,298,-4.8638,mol/L,292.33400000000006,3.966800000000002,50.44,1.0,3.0
CC(=O)OCCS,water,298,-1.5,mol/L,120.17300000000002,0.4793,26.3,1.0,3.0
CC1=C(Cl)C(=O)N(C(=O)N1)C(C)(C)C,water,298,-2.4845,mol/L,216.668,1.25342,54.86,1.0,3.0
CO[P](=S)(OC)SS[P](=S)(OC)OC,water,298,-4.3981,mol/L,314.3520000000001,3.402400000000002,36.92,0.0,8.0
NC(=O)NN=C[C@H](O)[C@@H](O)[C@H](O)CO,water,298,-0.1288,mol/L,207.186,-3.2845,148.4,6.0,6.0
OC(=O)CC[P](O)(O)=O,water,298,0.5007,mol/L,154.05800000000002,-0.3612,94.83000000000001,3.0,2.0
OC[C@H]1O[C@@H](O[C@H]2[C@H](O)[C@@H](O)[C@H](O)O[C@@H]2CO)[C@H](O)[C@@H](O)[C@H]1O,water,298,-0.8167,mol/L,342.297,-5.397199999999993,189.52999999999997,8.0,11.0
CC(=C)[C@@H]1CCC(=CC1)C,water,298,-3.9944,mol/L,136.238,3.308900000000002,0.0,0.0,0.0
CCN(CC)CCSCCN(CC)CC,water,298,-2.3663,mol/L,232.43699999999995,2.403200000000001,6.48,0.0,3.0
COc1ccc2C(OC(=O)c2c1OC)C3N(C)CCc4cc5OCOc5c(OC)c34,water,298,-3.9729,mol/L,413.4260000000003,2.881800000000001,75.69000000000001,0.0,8.0
CC(=O)CC(CC(O)=O)c1ccccc1,water,298,-1.4463,mol/L,206.241,2.224,54.37,1.0,2.0
CCN(c1c(cc(cc1[N+]([O-])=O)[N+]([O-])=O)[N+]([O-])=O)[N+]([O-])=O,water,298,-3.7007,mol/L,301.171,1.4292000000000002,175.79999999999998,0.0,8.0
Nc1ccc(cc1)C#Cc2ccc(N)cc2,water,298,-2.4326,mol/L,208.264,2.2508,52.04,2.0,2.0
OC(=O)c1ccccc1C(=O)c2ccccc2O,water,298,-2.3428,mol/L,242.23,2.321400000000001,74.6,2.0,3.0
[O-][N+](=O)C(COC(=O)c1ccccc1C(=O)OCC([N+]([O-])=O)([N+]([O-])=O)[N+]([O-])=O)([N+]([O-])=O)[N+]([O-])=O,water,298,-3.5782,mol/L,492.22200000000026,-1.0319999999999991,311.43999999999994,0.0,16.0
CCC(O)C(Cl)(Cl)Cl,water,298,-0.9481,mol/L,177.458,2.127500000000001,20.23,1.0,1.0
C\C=C/CO,water,298,1.142,mol/L,72.107,0.5548,20.23,1.0,1.0
CC(C)CC1OCCO1,water,298,-0.3695,mol/L,130.18699999999998,1.4054,18.46,0.0,2.0
O=C1CCCCCCCCN1,water,298,-1.0737,mol/L,155.241,1.8469,29.1,1.0,1.0
CNCl,water,298,0.2806,mol/L,65.503,0.3596,12.03,1.0,1.0
CN(C)C=Nc1ccc(Cl)cc1C,water,298,-2.8624,mol/L,196.68099999999998,2.8698200000000007,15.6,0.0,1.0
CCCCCCC(C)O,water,298,-2.0075,mol/L,130.231,2.3376000000000006,20.23,1.0,1.0
OC(=O)C(S)CS,water,298,-0.2374,mol/L,138.21300000000002,0.29919999999999997,37.3,3.0,3.0
O/N=C/c1oc(cc1)[N+]([O-])=O,water,298,-2.1934,mol/L,156.09699999999998,0.9959,88.87,1.0,5.0
O=C1CCCCCN1C(=O)c2ccccc2,water,298,-2.1667,mol/L,217.26800000000003,2.2294,37.38,0.0,2.0
O=C1C=CC(C=C1)=NNc2ccc(N=Nc3ccccc3)c4ccccc24,water,298,-6.0092,mol/L,352.3970000000001,5.718200000000004,66.18,1.0,5.0
CC1(C)C2CCC1(C)C(N)(C2)C(O)=O,water,298,-1.5961,mol/L,197.27799999999996,1.6147,63.32,2.0,2.0
[Br-].CC[NH2+]CC,water,298,0.8123,mol/L,154.051,-3.406399999999998,16.61,1.0,0.0
Cc1ccc(cc1N)[S](N)(=O)=O,water,298,-1.9169,mol/L,186.236,0.22462000000000049,86.18,2.0,3.0
CCCCCCCCNC(=O)C(C)O,water,298,-2.2827,mol/L,201.31,1.8439,49.33,2.0,2.0
CCCCCCCCCCNC(=O)C(C)O,water,298,-3.3605,mol/L,229.364,2.6241000000000008,49.33,2.0,2.0
CC(O)C(=O)OC(C)C(=O)OCC=C,water,298,-0.6826,mol/L,202.20599999999996,0.02809999999999957,72.83,1.0,5.0
CNCC(O)C(O)C(O)C(O)CO,water,298,0.4084,mol/L,195.21499999999997,-3.3582999999999994,113.18,6.0,6.0
COC(=O)C(C)OC(C)=O,water,298,-0.2617,mol/L,146.14199999999997,0.11099999999999999,52.6,0.0,4.0
OC(=O)CN(CCC#N)CCC#N,water,298,0.4578,mol/L,181.195,0.2003600000000001,88.12,1.0,4.0
COc1cc2nccnc2c(N)c1OC,water,298,-1.7102,mol/L,205.21699999999998,1.2291999999999998,70.26,1.0,5.0
CN(C(N)=O)c1ccc(C)cc1,water,298,-0.423,mol/L,164.20799999999997,1.5099200000000002,46.33,1.0,1.0
CC(C)CC(C)CO,water,298,-1.6007,mol/L,116.20399999999998,1.6609,20.23,1.0,1.0
NC(=O)c1ccc(cc1)[S](N)(=O)=O,water,298,-2.3015,mol/L,200.21899999999994,-0.5670999999999999,103.25,2.0,3.0
CC1=CN(Cc2ccccc2)C(=O)NC1=O,water,298,-2.2558,mol/L,216.23999999999998,0.8933199999999999,54.86,1.0,3.0
Cc1[nH]cnc1[S](O)(=O)=O,water,298,0.188,mol/L,162.17,-0.03517999999999999,83.04999999999998,2.0,3.0
Cc1ccc2NC(=O)C(=O)Nc2c1,water,298,-3.0418,mol/L,176.175,0.5248199999999997,65.72,2.0,2.0
OC(=O)c1ccc(Br)c(c1)[N+]([O-])=O,water,298,-2.9677,mol/L,246.016,2.0555000000000003,80.44,1.0,3.0
CN1c2ccccc2C(O)(c3ccccc3)c4ccccc14,water,298,-3.9031,mol/L,287.362,4.052100000000002,23.47,1.0,2.0
CC1(CCCC=C1C(O)=O)C(O)=O,water,298,-1.9642,mol/L,184.19099999999997,1.2722,74.6,2.0,2.0
OC(=O)CC(N(CCC#N)CCC#N)C(O)=O,water,298,-1.5337,mol/L,239.23099999999997,0.0436600000000002,125.42000000000002,2.0,5.0
CN(C)C(=O)c1ccccc1C(=O)N(C)C,water,298,0.5083,mol/L,220.27199999999996,1.0902,40.620000000000005,0.0,2.0
COc1cc(CC=C)ccc1OCC([O-])=O,water,298,-2.2786,mol/L,221.23199999999997,0.5523999999999998,58.589999999999996,0.0,4.0
C\C=C/C(=O)O[C@@H]1C[C@H]2O[C@@H]3C=C(C)C(=O)C[C@]3(C)[C@]1(C)[C@@]24CO4,water,298,-2.9196,mol/L,332.39600000000013,2.3461000000000007,65.13,0.0,5.0
CCCCCOC(=O)C(C)O,water,298,-1.2047,mol/L,160.213,1.1006,46.53,1.0,3.0
OCc1cc(Cl)ccc1OCC(O)=O,water,298,-2.0347,mol/L,216.61999999999998,1.2956999999999999,66.75999999999999,2.0,3.0
CNC(=O)Oc1cc(C)c(N(CC=C)CC=C)c(C)c1,water,298,-3.5932,mol/L,274.364,3.200040000000002,41.57,1.0,3.0
Clc1cccc(Oc2ccccc2)c1,water,298,-4.2107,mol/L,204.656,4.1323000000000025,9.23,0.0,1.0
CC(=C)[C@@H]1CC=C(C)C(=O)C1,water,298,-2.0608,mol/L,150.22099999999998,2.4879000000000007,17.07,0.0,1.0
Oc1ccc(cc1C(=O)Nc2ccc(Cl)cc2)[N+]([O-])=O,water,298,-5.122,mol/L,292.67800000000005,3.206100000000001,92.47,2.0,4.0
Oc1c(cccc1[N+]([O-])=O)C(=O)Nc2ccc(Cl)cc2,water,298,-4.5452,mol/L,292.678,3.206100000000001,92.47,2.0,4.0
CC(C)C(Br)C(=O)NC(C)C(O)=O,water,298,-0.4825,mol/L,252.108,0.9952000000000001,66.4,2.0,2.0
Cn1cnc2N(C)C(=O)N(CCCCC(C)=O)C(=O)c12,water,298,-0.558,mol/L,278.31199999999995,0.19299999999999962,78.89,0.0,7.0
CCCCCOC(=O)c1ccc(O)cc1,water,298,-3.8135,mol/L,208.257,2.739200000000001,46.53,1.0,3.0
CC[C@]12CC[C@H]3[C@@H](CCC4=CC(=O)CC[C@H]34)[C@@H]1CC[C@@]2(O)C#C,water,298,-5.2567,mol/L,312.45300000000003,3.8826000000000027,37.3,1.0,2.0
O=CCc1ccc2OCOc2c1,water,298,-1.96,mol/L,164.15999999999997,1.1567,35.53,0.0,3.0
OC(=O)C1CC(=O)c2ccccc2C1,water,298,-2.1031,mol/L,190.198,1.5163000000000002,54.37,1.0,2.0
CCNc1nc(Cl)nc(NCC(=O)OCC)n1,water,298,-2.9374,mol/L,259.69699999999995,0.9317999999999999,89.03,2.0,7.0
NC(CO)C(=O)NC(CO)C(O)=O,water,298,-0.5847,mol/L,192.171,-3.1322999999999985,132.88,5.0,5.0
ONC1=C(CCC1)N=O,water,298,-1.9937,mol/L,128.131,1.1271,61.69,2.0,4.0
CC1CCC(=O)N1c2ccccc2,water,298,-0.8457,mol/L,175.23100000000002,2.2019,20.310000000000002,0.0,1.0