Solute,Solvent,Temperature_K,Solubility,Units,MW,LogP,TPSA,HBD,HBA
CC(C)c1ccc2ccccc2c1C(C)C,water,298,-6.2856,mol/L,212.33599999999996,5.086600000000004,0.0,0.0,0.0
CC(C)N.OC(=O)CNC[P](O)(O)=O,water,298,0.6629,mol/L,228.18499999999997,-0.8506999999999996,132.88,5.0,4.0
CCOC(=O)CN(C(=O)CCl)c1c(CC)cccc1CC,water,298,-3.4727,mol/L,311.8090000000001,2.9463000000000017,46.61,0.0,3.0
CC(C)S[S](=O)C(C)C,water,298,-0.823,mol/L,166.311,2.2001,17.07,0.0,2.0
CC(C)(O)CC(C)(O)c1cccc2ccccc12,water,298,-3.2419,mol/L,244.33400000000003,3.208300000000002,40.46,2.0,2.0
Clc1ccc2Oc3ccc(Cl)cc3Oc2c1,water,298,-7.1806,mol/L,253.08399999999997,4.891400000000002,18.46,0.0,2.0
Clc1c(Cl)c(Cl)c2c(oc3c(Cl)c(Cl)c(Cl)c(Cl)c23)c1Cl,water,298,-11.5827,mol/L,443.7550000000001,8.813199999999998,13.14,0.0,1.0
OC(=O)C(I)=CBr,water,298,-1.2118,mol/L,276.855,1.7423000000000002,37.3,1.0,1.0
CNC(=O)O\N=C(\CSC)C(C)(C)C,water,298,-1.6231,mol/L,218.32199999999997,2.1075,50.69,1.0,4.0
C/C=C/C(=O)Oc1c(cc(cc1C(C)(C)CC(C)(C)C)[N+]([O-])=O)[N+]([O-])=O,water,298,-4.9595,mol/L,364.3980000000001,4.698300000000004,112.58000000000001,0.0,6.0
Clc1ccc(c(Cl)c1)c2c(Cl)cc(Cl)cc2Cl,water,298,-7.66,mol/L,326.437,6.620600000000001,0.0,0.0,0.0
CC(C)=CC1C(C(=O)OC(C#N)c2cccc(Oc3ccccc3)c2)C1(C)C,water,298,-7.5746,mol/L,375.4680000000001,5.825180000000005,59.32000000000001,0.0,4.0
CC1(C)C(C(=O)OC(C#N)c2cccc(Oc3ccccc3)c2)C1(C)C,water,298,-6.0248,mol/L,349.43000000000006,5.268980000000004,59.32000000000001,0.0,4.0
CCC(CCC(O)=O)C(C)=O,water,298,-0.451,mol/L,158.19699999999997,1.4664,54.37,1.0,2.0
CNC(=O)N(C)C(=O)CC#N,water,298,0.1709,mol/L,155.15699999999998,-0.30212000000000017,73.2,1.0,3.0
Clc1cc(cc(Cl)c1Cl)c2cc(Cl)c(Cl)c(Cl)c2Cl,water,298,-8.7202,mol/L,395.3270000000001,7.9274000000000004,0.0,0.0,0.0
CC(=O)NCC(=O)Nc1ccccc1,water,298,-1.5678,mol/L,192.21800000000002,0.7611999999999997,58.2,2.0,2.0
CC(C)(C)C1=NN(C(=O)O1)c2cc(OCC#C)c(Cl)cc2Cl,water,298,-5.9648,mol/L,341.1940000000001,3.4418000000000024,57.260000000000005,0.0,5.0
CCN1C(=O)N(C)c2ncn(C)c2C1=O,water,298,-0.719,mol/L,208.221,-0.5464000000000007,61.82,0.0,6.0
CCOC(=O)C(NC=O)=CC=Cc1ccccc1,water,298,-3.3483,mol/L,245.27800000000002,1.8928,55.4,1.0,3.0
ClCCC(Cl)O[P](=O)(OC(Cl)CCCl)OC(Cl)CCCl,water,298,-3.6344,mol/L,430.90700000000004,5.725700000000003,44.760000000000005,0.0,4.0
Clc1cc(Cl)c(Cl)c(c1)c2c(Cl)cc(Cl)c(Cl)c2Cl,water,298,-8.68,mol/L,395.3270000000001,7.9274000000000004,0.0,0.0,0.0
Clc1cc(Cl)c(c(Cl)c1Cl)c2c(Cl)c(Cl)cc(Cl)c2Cl,water,298,-9.1999,mol/L,429.77200000000016,8.580799999999998,0.0,0.0,0.0
Clc1cc(c(Cl)c(Cl)c1Cl)c2c(Cl)c(Cl)c(Cl)c(Cl)c2Cl,water,298,-10.2688,mol/L,464.2170000000002,9.2342,0.0,0.0,0.0
CCC(CC)Nc1c(cc(C)c(C)c1[N+]([O-])=O)[N+]([O-])=O,water,298,-5.9721,mol/L,281.312,3.720340000000003,98.31,1.0,5.0
COC(C)(C)CCCC(C)C\C=C\C(C)=C\C(=O)OC(C)C,water,298,-5.3459,mol/L,310.47800000000007,5.062000000000006,35.53,0.0,3.0
CN(C)c1ncc2nccnc2n1,water,298,0.3586,mol/L,175.195,0.4857999999999998,54.800000000000004,0.0,5.0
CCOC(=O)\C=C(C)\C=C\CC(C)CCCC(C)C,water,298,-5.1246,mol/L,266.42499999999995,4.904500000000005,26.3,0.0,2.0
Fc1ccc(cc1)N2C(=O)C(=C(Cl)C2=O)Cl,water,298,-4.6442,mol/L,260.051,2.3881000000000006,37.38,0.0,2.0
COc1ccc(cc1C)C(=O)c2cccc(C)c2,water,298,-5.0797,mol/L,240.302,3.543040000000002,26.3,0.0,2.0
NC(=O)NN=C[C@@H](O)[C@@H](O)[C@H](O)[C@H](O)CO,water,298,-0.53,mol/L,237.21200000000002,-3.9236,168.63,7.0,7.0
CC1=NN=C(c2ccccc2)C(=O)N1N,water,298,-2.0506,mol/L,202.21699999999998,0.3275199999999999,73.8,1.0,5.0
Clc1ccc(Cl)c(c1)c2c(Cl)cccc2Cl,water,298,-6.7879,mol/L,291.9920000000001,5.967200000000002,0.0,0.0,0.0
Clc1ccc(cc1Cl)c2c(Cl)cccc2Cl,water,298,-7.0199,mol/L,291.99199999999996,5.967200000000001,0.0,0.0,0.0
Clc1ccc(Cl)c(c1Cl)c2ccccc2Cl,water,298,-6.3001,mol/L,291.9920000000001,5.967200000000002,0.0,0.0,0.0
CCCCc1c(C)nc(NCC)nc1O[S](=O)(=O)N(C)C,water,298,-4.1579,mol/L,316.4270000000001,1.74462,84.42,1.0,6.0
CCOc1ccc(NC(C)=O)c(C)c1,water,298,-1.839,mol/L,193.24599999999998,2.35212,38.33,1.0,2.0
Cc1cccc2sc3nncn3c12,water,298,-2.0729,mol/L,189.24300000000002,2.25242,30.19,0.0,4.0
COc1cc(C=O)c(C)cc1O,water,298,-2.7435,mol/L,166.176,1.5217199999999997,46.53,1.0,3.0
CC(C)(C)NCC(O)COc1cccc2C[C@@H](O)[C@@H](O)Cc12,water,298,-1.5699,mol/L,309.40600000000006,0.6347999999999998,81.95,4.0,5.0
COc1ccc(cc1)[C@@H]2Sc3ccccc3N(CCN(C)C)C(=O)[C@@H]2OC(C)=O,water,298,-2.9501,mol/L,414.5270000000002,3.368500000000002,59.080000000000005,0.0,6.0
CCO[P](=S)(OCC)Oc1nn(C(C)C)c(Cl)n1,water,298,-3.6577,mol/L,313.747,3.1887000000000016,58.4,0.0,7.0
COC(=O)c1cc(Oc2ccc(Cl)cc2Cl)ccc1[N+]([O-])=O,water,298,-5.9343,mol/L,342.1340000000001,4.480500000000003,78.66999999999999,0.0,5.0
CC(C)CCCC(C)C\C=C\C(C)=C\C(=O)OCC#C,water,298,-4.7239,mol/L,276.42,4.517800000000005,26.3,0.0,2.0
Cc1ccc(NC(=O)NC(C)(C)c2ccccc2)cc1,water,298,-5.3495,mol/L,268.36,4.051820000000003,41.13,2.0,1.0
CN(C(=O)NC(C)(C)c1ccccc1)c2ccccc2,water,298,-3.3495,mol/L,268.36,3.767700000000003,32.34,1.0,1.0
Clc1cc(Cl)c(c(Cl)c1Cl)c2cc(Cl)c(Cl)c(Cl)c2Cl,water,298,-9.42,mol/L,429.77200000000016,8.580799999999998,0.0,0.0,0.0
CCOc1cc(Oc2ccc(cc2Cl)C(F)(F)F)ccc1[N+]([O-])=O,water,298,-6.4939,mol/L,361.70300000000003,5.458000000000003,61.6,0.0,4.0
CCCOCC(O)COCCC,water,298,-0.3431,mol/L,176.25599999999994,1.2005,38.69,1.0,3.0
CC(C)(C)C(=O)C(Oc1ccc(Cl)cc1)n2cncn2,water,298,-3.6137,mol/L,293.754,3.1243000000000016,57.010000000000005,0.0,5.0
CC(=O)C(=O)Nc1ccccc1,water,298,-1.3676,mol/L,163.176,1.2141,46.17,1.0,2.0
CN(CCCCC(O)=O)[S](=O)(=O)c1ccccc1,water,298,-1.5585,mol/L,271.338,1.562,74.68,1.0,3.0
CCCCCOC(=O)c1cccnc1,water,298,-2.3776,mol/L,193.246,2.4286000000000003,39.19,0.0,3.0
NCCc1ccc(O)c(c1)[N+]([O-])=O,water,298,-1.3399,mol/L,182.17899999999997,0.8015999999999999,89.38999999999999,2.0,4.0
CN1C(=O)NC(=O)c2nc(C)c(C)nc12,water,298,-2.1129,mol/L,206.20499999999998,-0.36636000000000046,80.64,1.0,5.0
CC1(OC(=O)N(C1=O)c2cc(Cl)cc(Cl)c2)C=C,water,298,-5.0416,mol/L,286.11400000000003,3.4213000000000022,46.61,0.0,3.0
CC(C)OC(=O)C(C(=O)OC(C)C)=C1SCCS1,water,298,-3.7306,mol/L,290.406,2.581200000000001,52.60000000000001,0.0,6.0
COCCN(C(=O)CCl)c1c(C)cccc1C,water,298,-2.0461,mol/L,255.74499999999998,2.5216400000000005,29.54,0.0,2.0
OC(=O)c1cc(Oc2ccc(cc2Cl)C(F)(F)F)ccc1[N+]([O-])=O,water,298,-3.4791,mol/L,361.65900000000005,4.757500000000002,89.66999999999999,1.0,4.0
CC(C)(C)c1ccc(cc1)C(O)CCCN2CCC(CC2)C(O)(c3ccccc3)c4ccccc4,water,298,-6.69,mol/L,471.6850000000001,6.445800000000007,43.7,2.0,3.0
O=C1CCCCCCCCCCCCCCN1,water,298,-2.874,mol/L,239.40299999999993,4.187500000000003,29.1,1.0,1.0
CCO[P](C)(=O)SCCN(C(C)C)C(C)C,water,298,-0.95,mol/L,267.375,3.6978000000000026,29.54,0.0,4.0
CCCCCC(=O)NCCNC(=O)CCCCC,water,298,-3.1079,mol/L,256.38999999999993,2.3794000000000004,58.2,2.0,2.0
CC(=O)O[C@@H](C(O)=O)c1ccccc1,water,298,-1.2313,mol/L,194.186,1.3754000000000002,63.6,1.0,3.0
CC1OC1C2OC2C,water,298,-0.0575,mol/L,114.14399999999998,0.5609999999999998,25.06,0.0,2.0
Cn1c2ccccc2c(C(N)=O)c1C(N)=O,water,298,-1.8184,mol/L,217.22799999999995,0.3761000000000001,91.10999999999999,2.0,3.0
OC(=O)c1ccc(c(c1)C(O)=O)[S](O)(=O)=O,water,298,0.6087,mol/L,246.19599999999997,0.3297,128.97,3.0,4.0
Cc1nn(c2ccccc2)c(N)c1C,water,298,-1.6704,mol/L,187.24599999999995,2.07134,43.84,1.0,3.0
CCc1cccc(C)c1N(C(C)COC)C(=O)CCl,water,298,-2.7287,mol/L,283.7989999999999,3.1641200000000014,29.54,0.0,2.0
CN(C)C1=NC(=O)N(C2CCCCC2)C(=O)N1C,water,298,-0.8834,mol/L,252.31799999999993,0.5131999999999994,60.13,0.0,6.0
CCCCNC1(CCCCC1)[P](=O)(OCCCC)OCCCC,water,298,-3.3105,mol/L,347.48000000000013,5.863000000000006,47.56,1.0,4.0
CCCCSC(SCc1ccc(cc1)C(C)(C)C)=Nc2cccnc2,water,298,-5.5712,mol/L,372.60300000000007,6.833300000000007,25.25,0.0,4.0
COC(=O)C(C)Oc1ccc(Oc2ccc(Cl)cc2Cl)cc1,water,298,-5.6299,mol/L,341.19000000000005,4.7260000000000035,44.760000000000005,0.0,4.0
COC(CN(C)C(=O)Nc1sc(nn1)C(C)(C)C)OC,water,298,-1.8678,mol/L,302.40000000000003,1.9182000000000001,76.58,1.0,6.0
CN=C(NCCSCc1nc[nH]c1C)NC#N,water,298,-1.4298,mol/L,252.347,0.5974,88.88999999999999,3.0,4.0
CNC(=O)Oc1ccccc1OC(CCl)OC,water,298,-2.3005,mol/L,259.68899999999996,1.9949000000000001,56.790000000000006,1.0,4.0
C[C@@H]/1CC(=C/CC2C[C@@H](C[C@]3(CC[C@H](C)C(C)O3)O2)OC(=O)[C@@H]4C=C(C)[C@@H](O)[C@H]5OCC(=C\C=C1)/[C@@]45O)/C,water,298,-5.7787,mol/L,528.6860000000003,4.534200000000005,94.45000000000002,2.0,7.0
CCC1O[C@]2(CCC1C)C[C@@H]3C[C@@H](C\C=C(/C)CC(C)/C=C/C=C/4CO[C@@H]5[C@H](O)C(=C[C@@H](C(=O)O3)[C@]45O)C)O2,water,298,-4.8772,mol/L,542.7130000000002,4.924300000000007,94.45,2.0,7.0
O=C(Nc1snnc1)Nc2ccccc2,water,298,-4.0419,mol/L,220.25700000000006,2.1821,66.91,2.0,4.0
Clc1ccc(Oc2ccccc2)c(Cl)c1,water,298,-4.6304,mol/L,239.101,4.785700000000003,9.23,0.0,1.0
Clc1cc(Cl)c(Cl)c(c1)c2cc(Cl)c(Cl)cc2Cl,water,298,-8.5801,mol/L,360.88200000000006,7.274000000000001,0.0,0.0,0.0
CCN1C=C(C(O)=O)C(=O)c2cnc(nc12)N3CCNCC3,water,298,-2.974,mol/L,303.32200000000006,-0.0807999999999991,100.35,2.0,7.0
O=C1CC=NC=N1,water,298,0.586,mol/L,96.089,0.015800000000000036,41.79,0.0,2.0
NC(=O)C1(CCCCC1)N2C(=O)c3cccc(Cl)c3C2=O,water,298,-4.0097,mol/L,306.7490000000001,2.1242,80.47,1.0,3.0
OC(=O)CSC1CCCCC1,water,298,-1.3381,mol/L,174.26499999999996,2.1369,37.3,1.0,2.0
CCC1(C)OC(=O)NC1=O,water,298,0.0203,mol/L,143.14199999999997,0.42150000000000004,55.4,1.0,3.0
CC(Oc1ccc2ccccc2c1)C(=O)Nc3ccccc3,water,298,-5.5894,mol/L,291.34999999999997,4.245800000000003,38.33,1.0,2.0
CC1(C)[C@@H](C=C(Cl)Cl)[C@H]1C(=O)OCc2cccc(Oc3ccccc3)c2,water,298,-7.8144,mol/L,391.2940000000001,6.113300000000004,35.53,0.0,3.0
Clc1cccc(c1Cl)c2ccc(Cl)c(Cl)c2Cl,water,298,-7.0502,mol/L,326.437,6.620600000000001,0.0,0.0,0.0
Clc1ccc(Cl)c(c1)c2c(Cl)c(Cl)cc(Cl)c2Cl,water,298,-7.4254,mol/L,360.88200000000006,7.274000000000001,0.0,0.0,0.0
Clc1ccc(Cl)c(c1Cl)c2c(Cl)c(Cl)cc(Cl)c2Cl,water,298,-7.94,mol/L,395.3270000000001,7.9274000000000004,0.0,0.0,0.0
Clc1ccc(Cl)c(c1Cl)c2c(Cl)cc(Cl)c(Cl)c2Cl,water,298,-8.1501,mol/L,395.3270000000001,7.9274000000000004,0.0,0.0,0.0
Clc1cc(Cl)c(Cl)c(c1)c2c(Cl)c(Cl)cc(Cl)c2Cl,water,298,-8.5901,mol/L,395.3270000000001,7.9274000000000004,0.0,0.0,0.0
Clc1cc(Cl)c(cc1Cl)c2c(Cl)c(Cl)cc(Cl)c2Cl,water,298,-7.9428,mol/L,395.3270000000001,7.9274000000000004,0.0,0.0,0.0
Clc1cc(Cl)c(cc1Cl)c2c(Cl)cc(Cl)c(Cl)c2Cl,water,298,-7.9068,mol/L,395.3270000000001,7.9274000000000004,0.0,0.0,0.0
Clc1ccc(c(Cl)c1Cl)c2c(Cl)c(Cl)cc(Cl)c2Cl,water,298,-8.42,mol/L,395.3270000000001,7.9274000000000004,0.0,0.0,0.0
Clc1ccc(c(Cl)c1Cl)c2c(Cl)cc(Cl)c(Cl)c2Cl,water,298,-8.2605,mol/L,395.3270000000001,7.9274000000000004,0.0,0.0,0.0
Clc1cc(Cl)c(cc1Cl)c2cc(Cl)c(Cl)c(Cl)c2,water,298,-8.21,mol/L,360.88200000000006,7.274000000000001,0.0,0.0,0.0
Clc1ccc(Cl)c(c1Cl)c2c(Cl)c(Cl)c(Cl)c(Cl)c2Cl,water,298,-9.1,mol/L,429.77200000000016,8.580799999999998,0.0,0.0,0.0
Clc1cc(Cl)c(Cl)c(c1)c2cc(Cl)c(Cl)c(Cl)c2Cl,water,298,-9.1,mol/L,395.3270000000001,7.9274000000000004,0.0,0.0,0.0
Clc1cc(c(Cl)c(Cl)c1Cl)c2c(Cl)c(Cl)cc(Cl)c2Cl,water,298,-9.29,mol/L,429.77200000000016,8.580799999999998,0.0,0.0,0.0
Clc1cc(Cl)c(cc1Cl)c2c(Cl)c(Cl)c(Cl)c(Cl)c2Cl,water,298,-9.5,mol/L,429.77200000000016,8.580799999999998,0.0,0.0,0.0
Clc1cc(Cl)c(Cl)c(c1Cl)c2c(Cl)c(Cl)c(Cl)c(Cl)c2Cl,water,298,-10.4115,mol/L,464.2170000000002,9.2342,0.0,0.0,0.0
Clc1ccc(c(Cl)c1Cl)c2c(Cl)c(Cl)c(Cl)c(Cl)c2Cl,water,298,-9.29,mol/L,429.77200000000016,8.580799999999998,0.0,0.0,0.0
Clc1cc(Cl)c(c(Cl)c1Cl)c2c(Cl)c(Cl)c(Cl)c(Cl)c2Cl,water,298,-10.1035,mol/L,464.2170000000002,9.2342,0.0,0.0,0.0
Clc1cccc(c1Cl)c2c(Cl)c(Cl)cc(Cl)c2Cl,water,298,-8.6036,mol/L,360.88200000000006,7.274000000000001,0.0,0.0,0.0
Clc1ccc(Cl)c(c1)c2cc(Cl)c(Cl)c(Cl)c2Cl,water,298,-7.6794,mol/L,360.88200000000006,7.274000000000001,0.0,0.0,0.0
Clc1ccc(Cl)c(c1)c2c(Cl)c(Cl)c(Cl)c(Cl)c2Cl,water,298,-7.8598,mol/L,395.3270000000001,7.9274000000000004,0.0,0.0,0.0
CC(C)OC(=O)C(C)N(C(=O)c1ccccc1)c2ccc(F)c(Cl)c2,water,298,-4.3056,mol/L,363.81600000000003,4.466000000000005,46.61,0.0,3.0
COC(=O)C(C)N(C(=O)c1ccccc1)c2ccc(F)c(Cl)c2,water,298,-3.982,mol/L,335.76200000000006,3.687400000000003,46.61,0.0,3.0
CCCN(CCC)C(=O)SCc1ccccc1,water,298,-4.2798,mol/L,251.395,4.161800000000003,20.310000000000002,0.0,2.0
CC1(C)[C@@H](C=C(Br)Br)[C@H]1C(=O)O[C@H](C#N)c2cccc(Oc3ccccc3)c2,water,298,-8.4024,mol/L,505.20600000000024,6.490180000000005,59.32000000000001,0.0,4.0
CCCCC(O)CN(\N=C/c1oc(cc1)[N+]([O-])=O)C(N)=O,water,298,-3.5716,mol/L,298.29900000000004,1.4535,135.2,2.0,6.0
Cc1cc(C)nc(Nc2ccccc2)n1,water,298,-3.2166,mol/L,199.25700000000003,2.837040000000001,37.81,1.0,3.0
Clc1ccc(c(Cl)c1)c2ccc(Cl)cc2Cl,water,298,-6.0229,mol/L,291.99199999999996,5.967200000000002,0.0,0.0,0.0
Clc1cccc2c(Cl)c(Cl)c(Cl)cc12,water,298,-7.8566,mol/L,265.954,5.4534,0.0,0.0,0.0
Clc1cc(Cl)c2cc(Cl)cc(Cl)c2c1,water,298,-7.8228,mol/L,265.954,5.453400000000001,0.0,0.0,0.0
CC(C)Cc1ccc(cc1)C(C)C(=O)NO,water,298,-3.044,mol/L,221.29999999999998,2.4939999999999998,49.33,2.0,2.0
O[S](=O)(=O)c1[nH]ccn1,water,298,-0.0738,mol/L,148.143,-0.3435999999999999,83.05,2.0,3.0
CC(=O)Nc1cc(N[S](=O)(=O)C(F)(F)F)c(C)cc1C,water,298,-3.2365,mol/L,310.297,2.52334,75.27000000000001,2.0,3.0
COCCOc1c(OC)cc(Cc2cnc(N)nc2N)cc1OC,water,298,-2.101,mol/L,334.3760000000001,1.2742,114.74,2.0,8.0
Ic1ccc2COC(=O)c2c1,water,298,-3.2109,mol/L,260.03,1.9615999999999998,26.3,0.0,2.0
C\C=C(/Cl)C(O)=O,water,298,0.9189,mol/L,120.53499999999998,1.2136000000000002,37.3,1.0,1.0
N[C@@H](C(=O)N[C@H]1[C@H]2SCC(=C(N2C1=O)C(O)=O)Cl)c3ccccc3,water,298,-1.5656,mol/L,367.814,0.6213000000000004,112.73000000000002,3.0,5.0
CC(C)(NC(=O)c1ccccc1)C(N)=O,water,298,-1.6154,mol/L,206.24499999999998,0.6803000000000001,72.19,2.0,2.0
COc1ccc(Cl)c(Cl)c1Cl,water,298,-4.2918,mol/L,211.475,3.655400000000001,9.23,0.0,1.0
CC\C=C(/C)C(OC(=O)C1C(C=C(C)C)C1(C)C)C#C,water,298,-6.3931,mol/L,274.404,4.126100000000004,26.3,0.0,2.0
CCCCC(=O)NCCNC(=O)CCCC,water,298,-1.8145,mol/L,228.33599999999996,1.5991999999999993,58.2,2.0,2.0
CCO[P](=S)(OCC)OC(Cl)C(Cl)(Cl)Cl,water,298,-5.5263,mol/L,336.0039999999999,4.2356000000000025,27.69,0.0,4.0
O=NN1CCCC1=O,water,298,0.0523,mol/L,114.104,0.29020000000000007,49.74,0.0,3.0
CC[C@H](C)[C@@H](NC(C)=O)C(O)=O,water,298,-0.5912,mol/L,173.212,0.6218000000000001,66.4,2.0,2.0
CSc1cc(O)cc(O)c1,water,298,-1.7957,mol/L,156.206,1.8196999999999997,40.46,2.0,3.0
CCCCSc1cc(O)cc(O)c1,water,298,-2.5191,mol/L,198.287,2.990000000000002,40.46,2.0,3.0
CCCCC(NC(C)=O)C(O)=O,water,298,-0.3443,mol/L,173.212,0.7659,66.4,2.0,2.0
CC(C)(C)C(O)C(Oc1ccc(cc1)c2ccccc2)n3cncn3,water,298,-4.8292,mol/L,337.423,3.929700000000002,60.17,1.0,5.0
Clc1ccccc1c2c(Cl)cc(Cl)c(Cl)c2Cl,water,298,-7.4346,mol/L,326.437,6.6206000000000005,0.0,0.0,0.0
CC(C)(C)C(O)C(Oc1ccc(Cl)cc1)n2cncn2,water,298,-3.3918,mol/L,295.77,2.916100000000001,60.17,1.0,5.0
CCCn1cnc2N(C)C(=O)N(CCCCC(C)=O)C(=O)c12,water,298,-0.9811,mol/L,306.366,1.0659999999999998,78.89,0.0,7.0
O=C1CN(CC2N1CCc3ccccc23)C(=O)C4CCCCC4,water,298,-2.8927,mol/L,312.4130000000002,2.5349000000000004,40.620000000000005,0.0,2.0
CCN(CC(C)=C)c1c(cc(cc1[N+]([O-])=O)C(F)(F)F)[N+]([O-])=O,water,298,-6.0457,mol/L,333.266,3.9242000000000035,89.51999999999998,0.0,5.0
CC1=C(C)[S](=O)(=O)CC[S]1(=O)=O,water,298,-1.66,mol/L,210.27599999999995,0.08099999999999996,68.28,0.0,4.0
Clc1ccccc1c2cc(Cl)c(Cl)c(Cl)c2Cl,water,298,-7.5226,mol/L,326.437,6.6206000000000005,0.0,0.0,0.0
CCCO[P](=O)(OCC)OCCC,water,298,-0.9802,mol/L,210.20999999999995,2.9842000000000013,44.760000000000005,0.0,4.0
OC(=O)COc1nc(Cl)c(Cl)cc1Cl,water,298,-2.7656,mol/L,256.472,2.5052000000000003,59.42,1.0,3.0
CN1CC(O)N(C1=O)c2sc(nn2)C(C)(C)C,water,298,-1.8773,mol/L,256.33099999999996,1.0258,69.56,1.0,5.0
CCCCCCCCSC(=O)Oc1cc(Cl)nnc1c2ccccc2,water,298,-5.4025,mol/L,378.92500000000007,6.389500000000006,52.08,0.0,5.0
Clc1ccc(Oc2ccccc2)cc1Cl,water,298,-4.7206,mol/L,239.101,4.785700000000003,9.23,0.0,1.0
Clc1ccc(Cl)c(c2ccccc2)c1Cl,water,298,-6.4902,mol/L,257.547,5.313800000000002,0.0,0.0,0.0
Clc1ccc(c2ccccc2)c(Cl)c1Cl,water,298,-6.1799,mol/L,257.547,5.313800000000001,0.0,0.0,0.0
Clc1ccc2cc(Cl)cc(Cl)c2c1,water,298,-6.5557,mol/L,231.509,4.800000000000001,0.0,0.0,0.0
Clc1ccc2cc(Cl)c(Cl)cc2c1,water,298,-7.1419,mol/L,231.509,4.800000000000001,0.0,0.0,0.0
Clc1ccc(Cl)c2cc(Cl)c(Cl)cc12,water,298,-7.5163,mol/L,265.954,5.453400000000001,0.0,0.0,0.0
CC(C)Oc1cccc(NC(=O)c2ccccc2C)c1,water,298,-4.3265,mol/L,269.344,4.034520000000002,38.33,1.0,2.0
CN(C)C(=O)Nc1cc(on1)C(C)(C)C,water,298,-2.4272,mol/L,211.26499999999996,2.0656,58.370000000000005,1.0,3.0
CCC(=O)N(c1ccccc1)C2(CCN(CCc3sccc3)CC2)COC,water,298,-3.7064,mol/L,386.5610000000001,4.214800000000004,32.78,0.0,4.0
Clc1ccc(c(Cl)c1)c2c(Cl)cc(Cl)c(Cl)c2Cl,water,298,-7.4721,mol/L,360.88200000000006,7.274000000000001,0.0,0.0,0.0
CCCC(C)CC(C)O,water,298,-1.8779,mol/L,130.231,2.1935000000000007,20.23,1.0,1.0
CC(C)C(O)(c1ccc(OC(F)(F)F)cc1)c2cncnc2,water,298,-3.4377,mol/L,312.29099999999994,3.267100000000002,55.24,1.0,4.0
O=CC(=O)Cc1ccccc1,water,298,-2.1707,mol/L,148.161,0.9970999999999999,34.14,0.0,2.0
Clc1cc(Cl)c(c(Cl)c1)c2c(Cl)cccc2Cl,water,298,-7.316,mol/L,326.437,6.620600000000001,0.0,0.0,0.0
Clc1cc(Cl)c(c(Cl)c1)c2ccc(Cl)c(Cl)c2,water,298,-7.91,mol/L,326.437,6.620600000000001,0.0,0.0,0.0
Clc1cc(Cl)c(c(Cl)c1)c2cc(Cl)cc(Cl)c2,water,298,-7.92,mol/L,326.437,6.620600000000001,0.0,0.0,0.0
FC1=CN(C(=O)NC1=O)C(=O)Nc2ccccc2,water,298,-1.6184,mol/L,249.20100000000002,0.7558999999999999,83.96000000000001,2.0,4.0
CNC(=O)N1C=C(F)C(=O)NC1=O,water,298,-2.4798,mol/L,187.13,-1.1368,83.96000000000001,2.0,4.0
CC(C)(C)c1ccc(O[P](=O)(Oc2ccccc2)Oc3ccccc3)cc1,water,298,-5.0774,mol/L,382.3960000000001,6.629000000000006,44.760000000000005,0.0,4.0
CO[P](=S)(OC)Oc1c(Cl)cc(C)cc1Cl,water,298,-5.4374,mol/L,301.131,4.197920000000002,27.69,0.0,4.0
CSC1=NN=C(C(=O)N1\N=C\C(C)C)C(C)(C)C,water,298,-4.4288,mol/L,268.386,2.1475999999999997,60.14,0.0,6.0
COc1c(O)cc(Cl)c(Cl)c1Cl,water,298,-2.8712,mol/L,227.474,3.3610000000000007,29.46,1.0,2.0
Clc1cc2oc3c(Cl)c(Cl)c(Cl)cc3c2cc1Cl,water,298,-9.1609,mol/L,340.4200000000001,6.853,13.14,0.0,1.0
Nc1ccc2COC(=O)c2c1,water,298,-2.0414,mol/L,149.149,0.9392000000000001,52.32,1.0,3.0
O=C1CCc2cccc3CCN1c23,water,298,-1.6365,mol/L,173.21499999999995,1.5219,20.310000000000002,0.0,1.0
CCN(C(=O)Oc1cccc(NC(=O)OC(C)C)c1)c2ccccc2,water,298,-5.0574,mol/L,342.39500000000004,4.668800000000004,67.87,1.0,4.0
FC(F)(F)c1cccc(c1)C(n2cncn2)(c3ccccc3)c4ccccc4,water,298,-8.403,mol/L,379.38500000000005,5.137100000000003,30.71,0.0,3.0
CN(CCOC(=O)c1ccccc1)C(C)=O,water,298,-0.8494,mol/L,221.256,1.3216999999999999,46.61,0.0,3.0
COC(=O)C(C)N(C(=O)c1occc1)c2c(C)cccc2C,water,298,-3.1173,mol/L,301.34200000000004,3.1047400000000023,59.75,0.0,4.0
COCC(=O)N(C(C)C(=O)OC)c1c(C)cccc1C,water,298,-1.5219,mol/L,279.336,1.8443399999999999,55.84,0.0,4.0
CCNC(=O)NC(=O)\C(=N\OC)C#N,water,298,-2.3477,mol/L,198.18199999999996,-0.6419199999999998,103.58000000000001,2.0,5.0
CC(C)OC(=O)[C@H](C)N(C(=O)c1ccccc1)c2ccc(F)c(Cl)c2,water,298,-4.4817,mol/L,363.81600000000003,4.466000000000005,46.61,0.0,3.0
Cc1ccc(cc1)N=Nc2cc(C)ccc2N,water,298,-3.9031,mol/L,225.29500000000002,4.301040000000003,50.739999999999995,1.0,3.0
CCC1(CC)C(=NC(=O)NC1=O)N,water,298,-1.3967,mol/L,183.21099999999998,0.3998000000000001,84.55,2.0,3.0
CC1OC(=O)c2cc(ccc12)[N+]([O-])=O,water,298,-2.6157,mol/L,193.15799999999996,1.8262,69.44,0.0,4.0
Cc1cc(ccc1N=Nc2c(Cl)cc(cc2Cl)[N+]([O-])=O)N(CCO)CCO,water,298,-5.9592,mol/L,413.26100000000025,4.416420000000005,111.55999999999999,2.0,7.0
Nc1c(Br)cc(Br)c(c1Br)[S](O)(=O)=O,water,298,-0.4888,mol/L,409.88100000000003,2.803000000000001,80.39,2.0,3.0
CC(N(c1ccc(F)c(Cl)c1)C(=O)c2ccccc2)C(O)=O,water,298,-4.2474,mol/L,321.735,3.599000000000002,57.61000000000001,1.0,2.0
Cc1cccc(C)c1N(C2CCOC2=O)C(=O)CCl,water,298,-3.2855,mol/L,281.7389999999999,2.19074,46.61,0.0,3.0
COC1OC(CNC(=O)N(CCCl)N=O)C(O)C(O)C1O,water,298,-1.5613,mol/L,327.721,-1.6277999999999992,140.92000000000002,4.0,8.0
Clc1ccc(Oc2ccc(Cl)cc2Cl)cc1,water,298,-6.2196,mol/L,273.546,5.4391000000000025,9.23,0.0,1.0
CCCO[P](=O)(OC)OC,water,298,0.4733,mol/L,168.129,1.8138999999999998,44.760000000000005,0.0,4.0