Solute,Solvent,Temperature_K,Solubility,Units,MW,LogP,TPSA,HBD,HBA
CCCCCCCC[Sn](CCCCCCCC)(CCCCCCCC)CCCCCCCC,water,298,-6.757097539,mol/L,571.6070000000004,12.877199999999977,0.0,0.0,0.0
[Cl].[Rh].c1ccc(cc1)P(c2ccccc2)c3ccccc3.c4ccc(cc4)P(c5ccccc5)c6ccccc6.c7ccc(cc7)P(c8ccccc8)c9ccccc9,water,298,-7.012009544,mol/L,925.2350000000002,11.021399999999993,0.0,0.0,0.0
CC(C)CCCCCCCCCCOC(=O)CSCc1cc(c(O)c(c1)C(C)(C)C)C(C)(C)C,water,298,-6.789589525,mol/L,492.8100000000003,8.930500000000004,46.53,1.0,4.0
[Cl-].[Cl-].[Pd++].c1ccc(cc1)P(c2ccccc2)c3ccccc3.c4ccc(cc4)P(c5ccccc5)c6ccccc6,water,298,-7.026737494,mol/L,701.9100000000003,0.8951000000000064,0.0,0.0,0.0
Nc1ccc(cc1Cl)C2(c3ccc(N)c(Cl)c3)c4ccccc4c5ccccc25,water,298,-6.904485627,mol/L,417.3390000000001,6.520900000000005,52.04,2.0,2.0
Clc1c(Cl)c(Cl)c2C3=Nc4cccc5cccc(N3C(=O)c2c1Cl)c45,water,298,-7.133614478,mol/L,408.0710000000002,6.505500000000001,32.67,0.0,2.0
OC1=Cc2ccccc2NC1=C3C(=O)c4ccccc4C3=O,water,298,-7.046360074,mol/L,289.29,3.3443000000000014,66.4,2.0,4.0
CCCC(CC)COC(=O)CCc1cc(c(O)c(c1)C(C)(C)C)C(C)(C)C,water,298,-7.197460503,mol/L,376.58100000000013,6.289300000000007,46.53,1.0,3.0
CC(C)(C)c1cc(Cc2cc(c(O)c(c2)C(C)(C)C)C(C)(C)C)cc(c1O)C(C)(C)C,water,298,-7.2956121,mol/L,424.6690000000002,7.878600000000009,40.46,2.0,2.0
Cc1cc(c(O)c(C)c1CN2C(=O)N(Cc3c(C)cc(c(O)c3C)C(C)(C)C)C(=O)N(Cc4c(C)cc(c(O)c4C)C(C)(C)C)C2=O)C(C)(C)C,water,298,-7.544026474,mol/L,699.9330000000001,7.176420000000009,126.69000000000003,3.0,9.0
CCc1cc(C)cc(CC)c1Nc2ccc(Nc3c(CC)cc(C)cc3CC)c4C(=O)c5ccccc5C(=O)c24,water,298,-7.423828912,mol/L,530.7120000000003,8.815640000000002,58.199999999999996,2.0,4.0
CCc1cccc(C)c1Nc2ccc(Nc3c(C)cccc3CC)c4C(=O)c5ccccc5C(=O)c24,water,298,-7.375301399,mol/L,474.60400000000027,7.690840000000007,58.199999999999996,2.0,4.0
O=C1N2c3cccc4cccc(N=C2c5cccc6cccc1c56)c34,water,298,-7.204596088,mol/L,320.35100000000006,4.7451000000000025,34.370000000000005,0.0,3.0
CCCCCCCCSCc1cc(C)c(O)c(CSCCCCCCCC)c1,water,298,-7.327113617,mol/L,424.76000000000033,8.888020000000003,20.23,1.0,3.0
CCCCCCCCSc1nc(Nc2cc(c(O)c(c2)C(C)(C)C)C(C)(C)C)nc(SCCCCCCCC)n1,water,298,-7.469064653,mol/L,588.9720000000001,10.82099999999999,70.93,2.0,7.0
CCCCCCCC[Sn](=O)CCCCCCCC,water,298,-7.375853651,mol/L,361.1580000000003,6.129400000000007,17.07,0.0,1.0
CCCCCCCCCCCCCCCCOC(C)=O,water,298,-7.397152994,mol/L,284.4839999999999,6.030800000000006,26.3,0.0,2.0
[OH-].[OH-].[Cu++].[Cu++].[O-]C([O-])=O,water,298,-7.344616241,mol/L,221.11399999999998,-2.8056000000000005,123.19,0.0,5.0
O=[Cu],water,298,-6.900612886,mol/L,79.545,-0.1213,17.07,0.0,1.0
CCCCC(CC)COC(=O)CCC(=O)OCC(CC)CCCC,water,298,-7.835715931,mol/L,342.52000000000015,5.285800000000005,52.60000000000001,0.0,4.0
CCC(CC)CO[Si](OCC(CC)CC)(OCC(CC)CC)OCC(CC)CC,water,298,-8.190644916,mol/L,432.76200000000034,7.233200000000009,36.92,0.0,4.0
CC(C)(C)c1cc(Cc2cc(c(O)c(c2)C(C)(C)C)C(C)(C)C)cc(c1O)C(C)(C)C,water,298,-8.62805056,mol/L,424.6690000000002,7.878600000000009,40.46,2.0,2.0
CCCCCCCCOc1ccc(c(O)c1)C(=O)c2ccccc2,water,298,-8.513798048,mol/L,326.43600000000004,5.362500000000006,46.53,1.0,3.0
CCCCCCCCC(O)=O.CCCCCCCC(O)=O.CCCCC(CC)C(O)=O.OCC(CO)(CO)CO,water,298,-8.765531466,mol/L,582.8160000000004,5.482500000000008,192.81999999999996,7.0,7.0
CCCCC(CC)COC(=O)c1ccc(Nc2nc(Nc3ccc(cc3)C(=O)NC(C)(C)C)nc(Nc4ccc(cc4)C(=O)OCC(CC)CCCC)n2)cc1,water,298,-9.009167506,mol/L,765.9999999999998,10.377099999999993,156.45999999999998,4.0,11.0
CCCCCCCC(=O)OOC(=O)CCCCCCC,water,298,-7.61189317,mol/L,286.412,4.7088000000000045,52.6,0.0,4.0
BrC1CC(Br)CC(Br)CC(Br)CC(Br)CC(Br)C1,water,298,-6.9904282,mol/L,641.6999999999999,6.921600000000004,0.0,0.0,0.0
c1ccc2cc3ccccc3cc2c1,water,298,-6.44481058,mol/L,178.23399999999995,3.993000000000002,0.0,0.0,0.0
C.[Nb],water,298,-7.226318968,mol/L,108.94900000000001,0.6335999999999999,0.0,0.0,0.0
Clc1ccc(Cl)c(N\N=C2/C(=O)C(=Cc3ccccc23)C(=O)Nc4cc(Cl)c(NC(=O)C5=Cc6ccccc6C(=N/Nc7cc(Cl)ccc7Cl)\C5=O)cc4Cl)c1,water,298,-8.150868125,mol/L,863.372,10.448999999999993,141.12,4.0,8.0
CCCCCCCCCCCCS,water,298,-7.573831768,mol/L,202.40699999999998,4.837100000000006,0.0,1.0,1.0
C.[Nb],water,298,-7.366050406,mol/L,108.94900000000001,0.6335999999999999,0.0,0.0,0.0
C.[Nb],water,298,-7.396741811,mol/L,108.94900000000001,0.6335999999999999,0.0,0.0,0.0
C.[Nb],water,298,-7.635822708,mol/L,108.94900000000001,0.6335999999999999,0.0,0.0,0.0
O=C1c2ccccc2C(=O)c3ccccc13,water,298,-6.039760498,mol/L,208.21599999999998,2.4620000000000006,34.14,0.0,2.0
[Ca++].Cc1ccccc1NC(=O)CC(=O)CN=Nc2ccc(cc2[N+]([O-])=O)[S]([O-])(=O)=O.Cc3ccccc3NC(=O)CC(=O)CN=Nc4ccc(cc4[N+]([O-])=O)[S]([O-])(=O)=O,water,298,-7.739803669,mol/L,878.8679999999999,4.597040000000004,342.46,2.0,18.0
CC(C)(C)CCCCC(=O)OC=C,water,298,-7.122461047,mol/L,184.279,3.279600000000002,26.3,0.0,2.0
C[C@@H](C[C@H](c1cc(C2CCCCC2)c(O)cc1C)c3cc(C4CCCCC4)c(O)cc3C)c5cc(C6CCCCC6)c(O)cc5C,water,298,-7.396502027,mol/L,622.9340000000002,12.197459999999978,60.69,3.0,3.0
[Al+3].[Cl-].[Cl-].[Cl-],water,298,-7.045782462,mol/L,133.341,-9.3688,0.0,0.0,0.0
O.O.O.O.O.O.O.O.O.[Al+3].[Al+3].[O-][S]([O-])(=O)=O.[O-][S]([O-])(=O)=O.[O-][S]([O-])(=O)=O,water,298,-7.498558651,mol/L,504.28800000000024,-12.197899999999992,524.28,0.0,12.0
O=C1N2c3cccc4cccc(N=C2c5cccc6cccc1c56)c34,water,298,-7.464233399,mol/L,320.35100000000006,4.7451000000000025,34.370000000000005,0.0,3.0
FC(F)(F)C1(F)C(F)(F)C(F)(F)C(F)(F)C(F)(C(F)(F)F)C1(F)F,water,298,-7.602120788,mol/L,400.0559999999999,5.082400000000002,0.0,0.0,0.0
FC1(F)C(F)(F)C(F)(F)C2(F)C(F)(F)C(F)(F)C(F)(F)C(F)(F)C2(F)C1(F)F,water,298,-7.664711532,mol/L,462.07399999999996,5.512600000000003,0.0,0.0,0.0
FC(F)(F)C(F)(F)C(F)(F)C(F)(F)C(F)(F)C(F)(F)C(F)(F)C(F)(F)F,water,298,-7.641525668,mol/L,438.05199999999996,5.922800000000002,0.0,0.0,0.0
CC(C)(C)N(Sc1sc2ccccc2n1)Sc3sc4ccccc4n3,water,298,-8.362937857,mol/L,403.6230000000001,6.720900000000004,29.020000000000003,0.0,7.0
Clc1c(Cl)c(Br)c2C3=NC(=Nc4n5[Cu]N6C(=N3)c7c(Cl)c(Br)c(Cl)c(Br)c7C6=NC8=NC(=Nc5c9c(Br)c(Cl)c(Br)c(Cl)c49)c%10c(Cl)c(Cl)c(Br)c(Cl)c8%10)c2c1Cl,water,298,-9.144234111,mol/L,1393.9079999999992,15.9573,84.02,0.0,8.0
Clc1cc(Cl)c2C3N=C(N=C4N5[Cu]N6C(N=C7N=C(N=C5c8c(Cl)c(Cl)c(Cl)c(Cl)c48)c9c(Cl)c(Cl)c(Cl)c(Cl)c79)c%10c(Cl)c(Cl)c(Cl)c(Cl)c%10C6=N3)c2c1Cl,water,298,-9.039324078,mol/L,1094.7729999999995,13.896299999999995,82.33,0.0,8.0
C.[Nb],water,298,-8.134133261,mol/L,108.94900000000001,0.6335999999999999,0.0,0.0,0.0
Brc1c(Br)c(Br)c(CCc2c(Br)c(Br)c(Br)c(Br)c2Br)c(Br)c1Br,water,298,-9.129987804,mol/L,971.226,11.096799999999998,0.0,0.0,0.0
CCCCC(CC)COC(=O)c1ccc(cc1)C(=O)OCC(CC)CCCC,water,298,-8.989632219,mol/L,390.5640000000003,6.433000000000007,52.60000000000001,0.0,4.0
CCC(C)CCCC(C)CCCC(C)C,water,298,-8.92925744,mol/L,212.42099999999996,5.665200000000006,0.0,0.0,0.0
CCCCCCCCOC(=O)c1ccccc1C(=O)OCc2ccccc2,water,298,-9.265375675,mol/L,368.4730000000001,5.5609000000000055,52.60000000000001,0.0,4.0
[Cr],water,298,-10.01699993,mol/L,51.996,-0.0025,0.0,0.0,0.0
O=[V]=O,water,298,-6.059025465,mol/L,82.942,-0.2401,34.14,0.0,2.0
O=[V]=O,water,298,-6.129183319,mol/L,82.942,-0.2401,34.14,0.0,2.0
[Co],water,298,-4.777363451,mol/L,58.933,-0.0025,0.0,0.0,0.0
[S--].[Co++],water,298,-4.969769601,mol/L,91.0,-0.0049,0.0,0.0,0.0
O=[W]=O,water,298,-5.442033305,mol/L,215.838,-0.2401,34.14,0.0,2.0
[O--].[O--].[O--].[Sm+3].[Sm+3],water,298,-5.558846833,mol/L,348.71700000000004,-0.3564,85.5,0.0,0.0
O=[W]=O,water,298,-6.476795412,mol/L,215.838,-0.2401,34.14,0.0,2.0
O=[W]=O,water,298,-5.531354183,mol/L,215.838,-0.2401,34.14,0.0,2.0
O=[W]=O,water,298,-6.578253052,mol/L,215.838,-0.2401,34.14,0.0,2.0
O=[W]=O,water,298,-5.580544849,mol/L,215.838,-0.2401,34.14,0.0,2.0
O=[W]=O,water,298,-4.708301195,mol/L,215.838,-0.2401,34.14,0.0,2.0
[Co],water,298,-4.797692957,mol/L,58.933,-0.0025,0.0,0.0,0.0
O=[W]=O,water,298,-6.815613968,mol/L,215.838,-0.2401,34.14,0.0,2.0
O=[W]=O,water,298,-5.955730007,mol/L,215.838,-0.2401,34.14,0.0,2.0
CC(C)(C)c1ccc(O[P@]2OC[C@]3(CO2)CO[P@](OC3)Oc4ccc(cc4C(C)(C)C)C(C)(C)C)c(c1)C(C)(C)C,water,298,-6.813060611,mol/L,604.7050000000002,9.868199999999996,55.38000000000001,0.0,6.0
CCCCCCCCCC(O)=O.CCCCCCCC(O)=O.CC(C)(CO)CO,water,298,-6.655885563,mol/L,420.6310000000002,5.640400000000006,115.06,4.0,4.0
O=[W]=O,water,298,-6.308822043,mol/L,215.838,-0.2401,34.14,0.0,2.0
CC(C)OC(=O)c1ccc(C)c(c1)N=Nc2c(O)c(cc3ccccc23)C(=O)Nc4cc(Cl)c(NC(=O)c5cc6ccccc6c(N=Nc7cc(ccc7C)C(=O)OC(C)C)c5O)cc4Cl,water,298,-7.007487981,mol/L,925.8259999999998,13.793639999999977,200.7,4.0,12.0
[S--].[Co++],water,298,-6.000955544,mol/L,91.0,-0.0049,0.0,0.0,0.0
Cc1ccccc1NC(=O)C2=Cc3ccccc3C(=N/Nc4cc(Cl)c(Cl)cc4Cl)\C2=O,water,298,-7.69430966,mol/L,484.77000000000015,6.376220000000003,70.56,2.0,4.0
CC(=O)C(N=Nc1ccc(C)cc1[N+]([O-])=O)C(=O)Nc2ccc(Cl)cc2,water,298,-7.605298094,mol/L,374.784,4.236620000000003,114.03,1.0,6.0
[Co],water,298,-3.825727848,mol/L,58.933,-0.0025,0.0,0.0,0.0
O[Co]=O,water,298,-6.018031191,mol/L,91.939,-0.6783,37.3,1.0,1.0
[S--].[Co++],water,298,-5.015250193,mol/L,91.0,-0.0049,0.0,0.0,0.0
C.[V],water,298,-4.187987781,mol/L,66.987,0.6335999999999999,0.0,0.0,0.0
C.[V],water,298,-6.205841507,mol/L,66.987,0.6335999999999999,0.0,0.0,0.0
C.[V],water,298,-6.381308331,mol/L,66.987,0.6335999999999999,0.0,0.0,0.0
C.[V],water,298,-4.500810952,mol/L,66.987,0.6335999999999999,0.0,0.0,0.0
C.[V],water,298,-6.500051606,mol/L,66.987,0.6335999999999999,0.0,0.0,0.0
O[Co]=O,water,298,-5.029759476,mol/L,91.939,-0.6783,37.3,1.0,1.0
[S--].[Co++],water,298,-4.028703757,mol/L,91.0,-0.0049,0.0,0.0,0.0
C.[V],water,298,-4.581727663,mol/L,66.987,0.6335999999999999,0.0,0.0,0.0
C.[V],water,298,-6.630631503,mol/L,66.987,0.6335999999999999,0.0,0.0,0.0
C.[V],water,298,-4.716061699,mol/L,66.987,0.6335999999999999,0.0,0.0,0.0
[S--].[Co++],water,298,-6.043641557,mol/L,91.0,-0.0049,0.0,0.0,0.0
O=[P](Oc1ccccc1)(Oc2ccccc2)Oc3cccc(O[P](=O)(Oc4ccccc4)Oc5ccccc5)c3,water,298,-7.809383602,mol/L,574.4620000000002,8.9764,89.52000000000001,0.0,8.0
COc1cc(OC)c(NC(=O)C2=Cc3ccccc3C(=N/Nc4cc(ccc4OC)C(=O)Nc5ccc(cc5)C(N)=O)\C2=O)cc1Cl,water,298,-7.866240199,mol/L,654.0790000000001,5.138000000000003,170.44,4.0,9.0
COc1ccc(cc1N\N=C2/C(=O)C(=Cc3ccccc23)C(=O)Nc4cc(OC)c(Cl)cc4OC)C(=O)Nc5ccccc5,water,298,-7.846560339,mol/L,611.0540000000002,6.039100000000005,127.35,3.0,8.0
Brc1c(Br)c(Br)c(COC(=O)C=C)c(Br)c1Br,water,298,-7.806077004,mol/L,556.6680000000002,5.728300000000002,26.3,0.0,2.0
COc1ccccc1N=NC(C(C)=O)C(=O)Nc2ccc3NC(=O)Nc3c2,water,298,-7.630599326,mol/L,367.36500000000007,2.5447999999999995,128.76999999999998,3.0,6.0
[P],water,298,-6.566718008,mol/L,30.974,0.8612,0.0,0.0,0.0
O[Co]=O,water,298,-7.049685923,mol/L,91.939,-0.6783,37.3,1.0,1.0
COc1cc(NC(=O)C(N=Nc2ccc(cc2Cl)c3ccc(N=NC(C(C)=O)C(=O)Nc4cc(OC)c(Cl)cc4OC)c(Cl)c3)C(C)=O)c(OC)cc1Cl,water,298,-8.004532604,mol/L,818.498,9.361599999999997,178.69999999999996,2.0,12.0
CC1=NN(c2ccccc2)C(=O)C1N=Nc3ccccc3,water,298,-7.541446627,mol/L,278.315,3.561600000000002,57.39,0.0,4.0
O=[Ti]=O,water,298,-4.999994562,mol/L,79.865,-0.2401,34.14,0.0,2.0
CCCCC(CC)COC(=O)c1c(Br)c(Br)c(Br)c(Br)c1C(=O)OCC(CC)CCCC,water,298,-5.949075231,mol/L,706.1479999999996,9.482999999999997,52.60000000000001,0.0,4.0
[S--].[Co++],water,298,-6.06306666,mol/L,91.0,-0.0049,0.0,0.0,0.0
[Co],water,298,-3.883473191,mol/L,58.933,-0.0025,0.0,0.0,0.0
[S--].[Co++],water,298,-4.074427258,mol/L,91.0,-0.0049,0.0,0.0,0.0
[Co],water,298,-5.88443221,mol/L,58.933,-0.0025,0.0,0.0,0.0
FC(F)(F)N1C(F)(F)C(F)(F)OC(F)(F)C1(F)F,water,298,-5.596058626,mol/L,299.03899999999993,3.2095999999999996,12.47,0.0,2.0
O=C1c2ccccc2C(=O)c3ccccc13,water,298,-6.445775272,mol/L,208.21599999999998,2.4620000000000006,34.14,0.0,2.0
c1ccc2cc3ccccc3cc2c1,water,298,-6.381758834,mol/L,178.23399999999995,3.993000000000002,0.0,0.0,0.0
[Ag+].CCCCCCCCCCCCCCCCCCCCCC([O-])=O,water,298,-6.782690092,mol/L,447.4520000000004,6.555700000000006,40.129999999999995,0.0,2.0
[Co],water,298,-4.916660338,mol/L,58.933,-0.0025,0.0,0.0,0.0
[S--].[Co++],water,298,-6.105343181,mol/L,91.0,-0.0049,0.0,0.0,0.0
[S--].[Co++],water,298,-4.108474795,mol/L,91.0,-0.0049,0.0,0.0,0.0
CCN(CC)[S](=O)(=O)c1ccc(OC)c(N\N=C2\C(=O)C(=Cc3ccccc23)C(=O)Nc4cc(Cl)c(OC)cc4OC)c1,water,298,-7.905255356,mol/L,627.1190000000001,4.817300000000004,135.63,2.0,9.0
[O--].[O--].[O--].[Nd+3].[Nd+3],water,298,-7.634860781,mol/L,336.47700000000003,-0.3564,85.5,0.0,0.0
CC(=O)C(N=Nc1ccc(Cl)cc1[N+]([O-])=O)C(=O)Nc2ccccc2Cl,water,298,-7.72175787,mol/L,395.202,4.581600000000002,114.03,1.0,6.0
CN[S](=O)(=O)c1cc(OC)c(N\N=C2/C(=O)C(=Cc3ccccc23)C(=O)Nc4ccc5NC(=O)Nc5c4)cc1OC,water,298,-7.89163614,mol/L,576.5910000000001,2.2024999999999997,183.83999999999997,5.0,9.0
O=C1n2c3ccccc3nc2c4ccc5C(=O)n6c7ccccc7nc6c8ccc1c4c58,water,298,-7.757994585,mol/L,412.40800000000013,4.344000000000003,68.74000000000001,0.0,6.0
O=C1n2c3ccccc3nc2c4ccc5c6nc7ccccc7n6C(=O)c8ccc1c4c58,water,298,-7.757994585,mol/L,412.40800000000013,4.344000000000002,68.74000000000001,0.0,6.0
Cc1cc(C)c(Nc2ccc(Nc3c(C)cc(C)cc3C)c4C(=O)c5ccccc5C(=O)c24)c(C)c1,water,298,-7.825073045,mol/L,474.6040000000003,7.799720000000007,58.199999999999996,2.0,4.0
O=[Te]=O,water,298,-5.358612404,mol/L,159.59799999999998,-0.6184000000000001,34.14,0.0,2.0
[Co],water,298,-4.931509459,mol/L,58.933,-0.0025,0.0,0.0,0.0
O[Co]=O,water,298,-6.126543039,mol/L,91.939,-0.6783,37.3,1.0,1.0
[Co],water,298,-4.946232716,mol/L,58.933,-0.0025,0.0,0.0,0.0
[Co],water,298,-3.948845021,mol/L,58.933,-0.0025,0.0,0.0,0.0
O=[Co],water,298,-5.052826397,mol/L,74.932,-0.1213,17.07,0.0,1.0
O[Co]=O,water,298,-5.1495187,mol/L,91.939,-0.6783,37.3,1.0,1.0
[S--].[Co++],water,298,-4.154193486,mol/L,91.0,-0.0049,0.0,0.0,0.0
S,water,298,-5.733197265,mol/L,34.083,0.11280000000000001,0.0,0.0,0.0
CC(C)C1CCCCC1,water,298,-5.311626594,mol/L,126.24300000000001,3.2227000000000023,0.0,0.0,0.0
[Co],water,298,-4.983607127,mol/L,58.933,-0.0025,0.0,0.0,0.0
[S--].[Co++],water,298,-4.172666238,mol/L,91.0,-0.0049,0.0,0.0,0.0
O=[Co],water,298,-5.091049559,mol/L,74.932,-0.1213,17.07,0.0,1.0
O=[Co],water,298,-5.094494081,mol/L,74.932,-0.1213,17.07,0.0,1.0
O=[Nb](=O)O[Nb](=O)=O,water,298,-6.947445159,mol/L,265.807,-0.5486,77.51,0.0,5.0
CCCC(Cl)CCCC(Cl)CCC(Cl)CCC(Cl)CCC(Cl)CCCC(Cl)CCC,water,298,-7.91711864,mol/L,545.3340000000001,10.912199999999988,0.0,0.0,0.0
O[Co]=O,water,298,-7.157319802,mol/L,91.939,-0.6783,37.3,1.0,1.0
O=[Co],water,298,-7.068487351,mol/L,74.932,-0.1213,17.07,0.0,1.0
[O--].[O--].[O--].[O--].[O--].[Al+3].[Al+3].[Zn++].[Zn++],water,298,-7.623477375,mol/L,264.739,-1.3605999999999998,142.5,0.0,0.0
CCCCCCCCCCCCCCCCCCN1C(=O)c2ccc3Sc4ccccc4c5ccc(C1=O)c2c35,water,298,-7.96678917,mol/L,555.8280000000001,10.58209999999999,39.07,0.0,4.0
[Co],water,298,-5.001720448,mol/L,58.933,-0.0025,0.0,0.0,0.0
[Co],water,298,-5.004988069,mol/L,58.933,-0.0025,0.0,0.0,0.0
[Co],water,298,-4.010766241,mol/L,58.933,-0.0025,0.0,0.0,0.0
[Co],water,298,-5.022170523,mol/L,58.933,-0.0025,0.0,0.0,0.0
[Co],water,298,-5.023802188,mol/L,58.933,-0.0025,0.0,0.0,0.0
[S--].[Co++],water,298,-4.218370858,mol/L,91.0,-0.0049,0.0,0.0,0.0
[S--].[Co++],water,298,-5.235667825,mol/L,91.0,-0.0049,0.0,0.0,0.0
[Co],water,298,-5.049537968,mol/L,58.933,-0.0025,0.0,0.0,0.0
O=[Co],water,298,-6.152033402,mol/L,74.932,-0.1213,17.07,0.0,1.0
O[Co]=O,water,298,-5.251945608,mol/L,91.939,-0.6783,37.3,1.0,1.0
CCC(C)CCCC(C)CCCC(C)C,water,298,-6.61539022,mol/L,212.42099999999996,5.665200000000006,0.0,0.0,0.0
[Ca++].Cc1ccc(N\N=C\2C(=O)C(=Cc3ccccc23)C([O-])=O)c(c1)[S]([O-])(=O)=O,water,298,-5.928853464,mol/L,424.4470000000002,0.0505199999999999,138.79,1.0,8.0
CCCCC(CC)CO[P](=O)(Oc1ccccc1)Oc2ccccc2,water,298,-6.855044862,mol/L,362.40600000000006,6.485500000000006,44.760000000000005,0.0,4.0
CCN1C(=O)C(=N/Nc2ccccc2[N+]([O-])=O)\C(=C(C#N)C1=O)C,water,298,-6.815976001,mol/L,327.3000000000001,1.59148,128.7,1.0,7.0
CC(=O)C(N=Nc1cc(ccc1Cl)C(=O)Nc2cc(Cl)ccc2C)C(=O)Nc3cc(C)c(NC(=O)C(N=Nc4cc(ccc4Cl)C(=O)Nc5cc(Cl)ccc5C)C(C)=O)cc3C,water,298,-7.263233538,mol/L,916.6499999999997,11.39847999999999,199.98,4.0,10.0
CCCC(Cl)CCCC(Cl)CCC(Cl)CCC(Cl)CCC(Cl)CCCC(Cl)CCC,water,298,-7.965810564,mol/L,545.3340000000001,10.912199999999988,0.0,0.0,0.0
Cc1ccccc1OP(Oc2ccccc2C)Oc3ccccc3C,water,298,-7.77984306,mol/L,352.3700000000001,6.3755600000000054,27.69,0.0,3.0
COc1ccc(NC(=O)C(N=Nc2ccc(cc2Cl)c3ccc(N=NC(C(C)=O)C(=O)Nc4ccccc4)c(Cl)c3)C(C)=O)cc1.COc5ccc(NC(=O)C(N=Nc6ccc(cc6Cl)c7ccc(N=NC(C(C)=O)C(=O)Nc8ccc(OC)cc8)c(Cl)c7)C(C)=O)cc5.CC(=O)C(N=Nc9ccc(cc9Cl)c%10ccc(N=NC(C(C)=O)C(=O)Nc%11ccccc%11)c(Cl)c%10)C(=O)Nc%12ccccc%12,water,298,-8.540480954,mol/L,1978.5899999999992,24.087000000000053,453.03,6.0,27.0
Cc1ccc2Nc3cc4C(=O)c5cc(C)ccc5Nc4cc3C(=O)c2c1,water,298,-7.783778559,mol/L,340.3820000000001,4.292840000000003,65.72,2.0,2.0
CN1C(=O)c2ccc3c4ccc5C(=O)N(C)C(=O)c6ccc(c7ccc(C1=O)c2c37)c4c56,water,298,-7.88123729,mol/L,418.4080000000002,4.188800000000003,74.76,0.0,4.0
Clc1ccc(Cl)c(N\N=C2\C(=O)C(=Cc3ccccc23)C(=O)Nc4ccccc4)c1,water,298,-7.907389462,mol/L,436.2980000000001,5.414400000000004,70.56,2.0,4.0
CC(=O)C(N=Nc1ccc(cc1Cl)c2ccc(N=NC(C(C)=O)C(=O)Nc3ccc(C)cc3)c(Cl)c2)C(=O)Nc4ccc(C)cc4,water,298,-8.101930722,mol/L,657.5580000000001,8.637240000000004,141.77999999999997,2.0,8.0
[Dy],water,298,-7.511883361,mol/L,162.5,0.0,0.0,0.0,0.0
O=C(c1ccc(Oc2ccccc2)cc1)c3ccc(cc3)C(=O)c4ccc(Oc5ccccc5)cc4,water,298,-7.973611776,mol/L,470.5240000000002,7.733200000000005,52.60000000000001,0.0,4.0
[Al+3].O[PH]([O-])=O.O[PH]([O-])=O.O[PH]([O-])=O,water,298,-4.770880972,mol/L,269.943,-4.1947,181.07999999999998,3.0,6.0
COc1ccc(cc1)\C=C/2N=C(OC2=O)c3ccc(cc3)C4=NC(=C/c5ccc(OC)cc5)/C(=O)O4,water,298,-6.983571154,mol/L,480.4760000000002,4.392800000000005,95.78000000000002,0.0,8.0
CCOC(=O)c1ccc2Sc3ccccc3C(=O)c2c1,water,298,-6.756602507,mol/L,284.336,3.591400000000002,43.370000000000005,0.0,4.0
[Al+3].O[PH]([O-])=O.O[PH]([O-])=O.O[PH]([O-])=O,water,298,-6.877631734,mol/L,269.943,-4.1947,181.07999999999998,3.0,6.0
[Cu]1N2C3=NC4=NC(=Nc5n1c(N=C6N=C(N=C2c7ccccc37)c8ccccc68)c9ccccc59)c%10ccccc4%10,water,298,-8.158424314,mol/L,576.0820000000002,4.848300000000004,84.02,0.0,8.0
[Al+3].O[PH]([O-])=O.O[PH]([O-])=O.O[PH]([O-])=O,water,298,-7.291078392,mol/L,269.943,-4.1947,181.07999999999998,3.0,6.0
O[Co]=O,water,298,-6.275970815,mol/L,91.939,-0.6783,37.3,1.0,1.0
[S--].[Co++],water,298,-5.280887354,mol/L,91.0,-0.0049,0.0,0.0,0.0
[Co],water,298,-5.093847839,mol/L,58.933,-0.0025,0.0,0.0,0.0
[S--].[Co++],water,298,-5.284823447,mol/L,91.0,-0.0049,0.0,0.0,0.0
CCCCC(CC)COC(=O)C1CCC(CC1)C(=O)OCC(CC)CCCC,water,298,-6.926267992,mol/L,396.61200000000025,6.312000000000007,52.60000000000001,0.0,4.0
[Co],water,298,-4.109208692,mol/L,58.933,-0.0025,0.0,0.0,0.0
[Co],water,298,-5.117146036,mol/L,58.933,-0.0025,0.0,0.0,0.0
CC(C)CCCCCCCCCCCCCCCOC(=O)CCCCCCCCCCCCCCC(C)C,water,298,-7.086497346,mol/L,536.9700000000005,12.764399999999979,26.3,0.0,2.0
CC1CCCCCCCCCCCCC(=O)C1,water,298,-5.74386512,mol/L,238.41499999999994,5.276500000000005,17.07,0.0,1.0
[Fe],water,298,-5.11351584,mol/L,55.845,-0.0025,0.0,0.0,0.0
[S--].[Co++],water,298,-5.330039773,mol/L,91.0,-0.0049,0.0,0.0,0.0
[Zn++].CCCCCCC(O)CCCCCCCCCCC([O-])=O.CCCCCCC(O)CCCCCCCCCCC([O-])=O,water,298,-5.202462692,mol/L,664.34,7.93470000000001,120.72,2.0,6.0
[Co],water,298,-4.152310453,mol/L,58.933,-0.0025,0.0,0.0,0.0
CC(C)c1ccc(cc1)C(C)C,water,298,-6.602799271,mol/L,162.27599999999995,3.9334000000000033,0.0,0.0,0.0
O[Co]=O,water,298,-7.282258538,mol/L,91.939,-0.6783,37.3,1.0,1.0
CC1=NN(c2ccccc2)C(=O)C1/C=C/3C(=NN(c4ccccc4)C3=O)C,water,298,-7.882271355,mol/L,358.40100000000007,3.3744000000000023,65.34,0.0,4.0
Cc1ccccc1NC(=O)C2=Cc3ccccc3C(=N/Nc4ccc(cc4C)[N+]([O-])=O)/C2=O,water,298,-7.981147657,mol/L,440.4590000000002,4.632640000000003,113.69999999999999,2.0,6.0
CC\1=NN(C(=O)C1=N/Nc2ccc(cc2Cl)c3ccc(N\N=C4/C(=NN(C4=O)c5ccccc5)C)c(Cl)c3)c6ccccc6,water,298,-8.14162673,mol/L,623.5040000000002,7.041600000000005,114.12,2.0,8.0
COC(=O)c1ccc(cc1N\N=C2/C(=O)C(=Cc3ccccc23)C(=O)Nc4ccccc4OC)C(=O)Nc5cc(Cl)ccc5Cl,water,298,-8.175068622,mol/L,643.4830000000002,6.461900000000004,135.19,3.0,8.0