Solute,Solvent,Temperature_K,Solubility,Units,MW,LogP,TPSA,HBD,HBA
CC(C)(C)c1ccc(O)cc1.C=O,water,298,-6.493940207,mol/L,180.24699999999996,2.5048000000000004,37.3,1.0,2.0
C[Si]1(C)O[Si](C)(C)O[Si](C)(C)O[Si](C)(C)O1,water,298,-6.722464115,mol/L,296.62,2.8736000000000015,36.92,0.0,4.0
[Hg],water,298,-6.554121251,mol/L,200.59,-0.0025,0.0,0.0,0.0
Cc1ccc(N\N=C2/C(=O)C=Cc3ccccc23)c(C)c1,water,298,-6.705444298,mol/L,276.33900000000006,3.7155400000000025,41.46,1.0,3.0
CCCCCCCCCCCCCC(=O)OC,water,298,-6.649738161,mol/L,242.40299999999993,4.8605000000000045,26.3,0.0,2.0
CN(C)c1ccc(cc1)C(O)(c2ccc(cc2)N(C)C)c3ccc(Nc4ccccc4)c5ccccc35,water,298,-6.989135552,mol/L,487.64700000000016,6.999600000000007,38.74,2.0,4.0
CCC(C)c1cc(C(C)CC)c(O)c(c1)C(C)CC,water,298,-6.72005506,mol/L,262.43699999999995,5.932700000000007,20.23,1.0,1.0
O=C(Nc1ccccc1SSc2ccccc2NC(=O)c3ccccc3)c4ccccc4,water,298,-6.978287061,mol/L,456.59200000000016,6.990600000000005,58.2,2.0,4.0
Clc1c(Cl)c(Cl)c2C(=O)OC(=O)c2c1Cl,water,298,-6.776781702,mol/L,285.89699999999993,3.6107999999999993,43.370000000000005,0.0,3.0
CCCCCCCCCCCC(=O)N(CCCC)CCCC,water,298,-7.016412077,mol/L,311.5540000000001,6.336100000000007,20.310000000000002,0.0,1.0
COc1ccc(cc1OC(C)=O)[N+]([O-])=O,water,298,-2.946604067,mol/L,211.17299999999997,1.5286999999999997,78.66999999999999,0.0,5.0
[Cu].C[S](O)(=O)=O,water,298,0.732330182,mol/L,159.653,-0.4985,54.37,1.0,2.0
Cc1ccc(cc1)C(=O)OOC(=O)c2ccc(C)cc2,water,298,-6.798351882,mol/L,270.284,3.232240000000002,52.6,0.0,4.0
CC(=C)C(=O)OCCC(F)(F)C(F)(F)C(F)(F)C(F)(F)C(F)(F)C(F)(F)F,water,298,-7.012411355,mol/L,432.17599999999993,5.234600000000002,26.3,0.0,2.0
Cc1cc(Cc2cc(C)cc(C3CCCCC3)c2O)c(O)c(c1)C4CCCCC4,water,298,-6.979034273,mol/L,392.5830000000002,7.400840000000007,40.46,2.0,2.0
CCCC[C@H](CC)COC(=O)/C=C/c1ccc(OC)cc1.CCCC[C@@H](CC)COC(=O)/C=C/c2ccc(OC)cc2,water,298,-7.151247238,mol/L,580.8060000000004,8.936000000000005,71.06,0.0,6.0
CCCCC(CC)COC(=O)c1ccccc1C(=O)OCC(CC)CCCC,water,298,-6.978908353,mol/L,390.5640000000003,6.433000000000007,52.60000000000001,0.0,4.0
CC(C)c1ccccc1C(C)C,water,298,-6.602799271,mol/L,162.27599999999995,3.9334000000000033,0.0,0.0,0.0
CC(C)c1cccc(c1)C(C)C,water,298,-6.602799271,mol/L,162.27599999999995,3.9334000000000033,0.0,0.0,0.0
CCCCCCCCCCCCCCCC(O)C(CO)NC(=O)CCCCCCC\C=C/CCCCCCCC,water,298,-6.451761881,mol/L,565.9680000000003,10.343199999999996,69.56,3.0,3.0
CC(C)(C)OOC(C)(C)c1ccc(cc1)C(C)(C)OOC(C)(C)C,water,298,-6.927483286,mol/L,338.4880000000001,5.650200000000006,36.92,0.0,4.0
CCCCCCCCCCCCCCCC(O)=O,water,298,-6.806908841,mol/L,256.42999999999995,5.552300000000005,37.3,1.0,1.0
Cc1cc(Cc2cc(C)cc(C3CCCCC3)c2O)c(O)c(c1)C4CCCCC4,water,298,-7.007344185,mol/L,392.5830000000002,7.400840000000007,40.46,2.0,2.0
CC(=O)OC1=CCC2C3CCC(C3)C12,water,298,-3.009726571,mol/L,192.25799999999995,2.4994000000000005,26.3,0.0,2.0
CC(=O)OC1=CCC2C3CCC(C3)C12,water,298,-3.014371476,mol/L,192.25799999999995,2.4994000000000005,26.3,0.0,2.0
Cc1cc(Cc2cc(C)cc(C3CCCCC3)c2O)c(O)c(c1)C4CCCCC4,water,298,-7.062452572,mol/L,392.5830000000002,7.400840000000007,40.46,2.0,2.0
C[Si]1(C)O[Si](C)(C)O[Si](C)(C)O[Si](C)(C)O1,water,298,-6.953686491,mol/L,296.62,2.8736000000000015,36.92,0.0,4.0
CCCCCCCC(=O)OCCCOC(=O)CCCCCCC,water,298,-7.516526119,mol/L,328.4930000000001,5.183900000000006,52.6,0.0,4.0
CC1(C)CCCC(C1)C(=O)CCC=C,water,298,-4.77931051,mol/L,194.31799999999996,3.738100000000003,17.07,0.0,1.0
CCn1c2ccccc2c3ccccc13,water,298,-6.813503151,mol/L,195.265,3.8144000000000027,4.93,0.0,1.0
CCN(CCOC(C)OCC(C)C)c1ccc(cc1)N=Nc2ccccc2,water,298,-7.090503766,mol/L,369.509,5.963500000000006,46.42,0.0,5.0
[Zr+4].[Zr+4].[Zr+4].[O-][P]([O-])([O-])=O.[O-][P]([O-])([O-])=O.[O-][P]([O-])([O-])=O.[O-][P]([O-])([O-])=O,water,298,-7.338158893,mol/L,653.5520000000004,-11.305900000000001,345.0,0.0,16.0
C(Sc1nnc(c2ccccc2)c(n1)c3ccccc3)\C=C\CSc4nnc(c5ccccc5)c(n4)c6ccccc6,water,298,-7.025125555,mol/L,582.7580000000003,8.165200000000006,77.34,0.0,8.0
COc1ccc(cc1)C(=O)CC(=O)c2ccc(cc2)C(C)(C)C,water,298,-7.060548154,mol/L,310.39300000000003,4.448400000000004,43.370000000000005,0.0,3.0
CCCCCCCCCCCCCCCCO,water,298,-7.004405573,mol/L,242.44699999999992,5.460000000000006,20.23,1.0,1.0
Cc1cc(Cc2cc(C)cc(C3CCCCC3)c2O)c(O)c(c1)C4CCCCC4,water,298,-7.275868155,mol/L,392.5830000000002,7.400840000000007,40.46,2.0,2.0
C[Si](O[Si](C)(C)C)O[Si](C)(C)C,water,298,-7.044345696,mol/L,221.50099999999995,2.8074000000000012,18.46,0.0,2.0
CCCCN(CCCC)c1ccc2c(Oc3cc(C)c(Nc4ccccc4)cc3C25OC(=O)c6ccccc56)c1,water,298,-7.425439657,mol/L,532.6840000000002,8.713220000000003,50.800000000000004,1.0,5.0
CN1C(=O)c2ccc3c4ccc5C(=O)N(C)C(=O)c6ccc(c7ccc(C1=O)c2c37)c4c56,water,298,-7.320569984,mol/L,418.4080000000002,4.188800000000003,74.76,0.0,4.0
O=C1CCCCCCCCCCCCCCO1,water,298,-7.079880982,mol/L,240.38699999999992,4.614500000000004,26.3,0.0,2.0
S=[P](Oc1ccccc1)(Oc2ccccc2)Oc3ccccc3,water,298,-7.233447948,mol/L,342.35600000000005,5.447900000000003,27.69,0.0,4.0
COc1ccc(cc1O)C2=CC(=O)c3c(O)cc(O[C@@H]4O[C@H](CO[C@@H]5O[C@@H](C)[C@H](O)[C@@H](O)[C@H]5O)[C@@H](O)[C@H](O)[C@H]4O)cc3O2,water,298,-7.505541952,mol/L,608.5490000000003,-1.0897000000000006,238.2,8.0,15.0
O=C1N(C[C@@H]2CO2)C(=O)N(C[C@@H]3CO3)C(=O)N1C[C@@H]4CO4,water,298,-2.468825327,mol/L,297.267,-2.6318999999999972,103.59,0.0,9.0
COCCCN1C(=O)c2c(N)c3C(=O)c4ccccc4C(=O)c3c(N)c2C1=O,water,298,-7.323792769,mol/L,379.3720000000002,0.4649999999999996,134.48,2.0,8.0
CCC(C)CCCOC(=O)CCc1cc(n2nc3ccccc3n2)c(O)c(c1)C(C)(C)C,water,298,-7.385788929,mol/L,437.5840000000002,5.725700000000007,77.24000000000001,1.0,6.0
CCCCC(CC)COC(=O)c1ccccc1C(=O)OCC(CC)CCCC,water,298,-7.361243289,mol/L,390.5640000000003,6.433000000000007,52.60000000000001,0.0,4.0
CCCCCCCCCCCCCCCCCCCCCC(O)=O,water,298,-7.32811446,mol/L,340.59200000000004,7.892900000000008,37.3,1.0,1.0
O=C(OCCCc1ccccc1)c2ccccc2,water,298,-4.800973789,mol/L,240.30200000000002,3.476200000000002,26.3,0.0,2.0
CCCCCC(C)CO,water,298,-2.528127071,mol/L,130.231,2.1951000000000005,20.23,1.0,1.0
CCCCCCCCCCCCCCCCO,water,298,-7.270673462,mol/L,242.44699999999992,5.460000000000006,20.23,1.0,1.0
CC(O)C(C)(C)\C=C\C1CC=C(C)C1(C)C,water,298,-7.236490392,mol/L,222.37199999999996,3.942000000000003,20.23,1.0,1.0
[Pd++].CC(=O)[CH-]C(C)=O.CC(=O)[CH-]C(C)=O,water,298,-7.438461097,mol/L,304.63800000000003,0.7348799999999998,68.28,0.0,4.0
O=C1NC(=O)c2ccc3c4ccc5C(=O)NC(=O)c6ccc(c7ccc1c2c37)c4c56,water,298,-7.591458634,mol/L,390.35400000000016,3.504400000000002,92.34,2.0,4.0
Cc1ccc(Nc2ccc(O)c3C(=O)c4ccccc4C(=O)c23)cc1,water,298,-7.549181312,mol/L,329.3550000000001,4.219620000000003,66.4,2.0,4.0
[O--].[Zr+4].[O-][S]([O-])(=O)=O,water,298,-7.706047479,mol/L,203.28599999999997,-1.4592999999999998,108.75999999999999,0.0,4.0
Cc1cc(Cc2cc(C)cc(c2O)C(C)(C)C)c(O)c(c1)C(C)(C)C,water,298,-7.687028004,mol/L,340.5070000000001,5.900440000000006,40.46,2.0,2.0
CCC1(C\C=C2/CCCc3cc(OC)ccc23)C(=O)CCC1=O,water,298,-4.172504242,mol/L,312.4090000000001,4.1334000000000035,43.370000000000005,0.0,3.0
CCCCCCCCCCCCCCCCCC,water,298,-7.627539949,mol/L,254.5019999999999,7.267800000000007,0.0,0.0,0.0
CC(C)C1OC2(CCCC2)OCC1(C)C,water,298,-3.524243771,mol/L,212.33299999999997,3.354300000000002,18.46,0.0,2.0
CCCCCCCCCCCCCCCCCC(=O)OC1CC(C)(C)NC(C)(C)C1.CCCCCCCCCCCCCCCC(=O)OC2CC(C)(C)NC(C)(C)C2,water,298,-8.214524895,mol/L,819.3979999999995,15.420399999999969,76.66,2.0,6.0
CCCCC(CC)COC(=O)c1ccc(Nc2nc(Nc3ccc(cc3)C(=O)OCC(CC)CCCC)nc(Nc4ccc(cc4)C(=O)OCC(CC)CCCC)n2)cc1,water,298,-8.216478376,mol/L,823.0919999999999,12.221999999999984,153.65999999999997,3.0,12.0
CCCCOC(=O)c1ccc(cc1)C(=O)OCCCC,water,298,-7.790411563,mol/L,278.348,3.600400000000003,52.60000000000001,0.0,4.0
CCN(CCOc1ccc(cc1)C2CCCCC2)c3ccc(C=C(C#N)C#N)c(C)c3,water,298,-8.014483786,mol/L,413.5650000000001,6.378580000000007,60.05,0.0,4.0
CCCCCCCCCCCCCCCC(=O)OC,water,298,-7.830038235,mol/L,270.45699999999994,5.640700000000005,26.3,0.0,2.0
CCCCC(CC)COC(=O)CCCCC(=O)OCC(CC)CCCC,water,298,-8.063724967,mol/L,370.5740000000002,6.066000000000007,52.60000000000001,0.0,4.0
CCCCC(CC)COC(=O)c1ccccc1C(=O)OCC(CC)CCCC,water,298,-8.114570955,mol/L,390.5640000000003,6.433000000000007,52.60000000000001,0.0,4.0
OCCOC(=O)CC(C[P]1(=O)Oc2ccccc2c3ccccc13)C(=O)OCCO,water,298,-4.461779562,mol/L,434.3810000000002,1.7266999999999992,119.36000000000001,2.0,8.0
CC1(C)Nc2cccc3cccc(N1)c23,water,298,-2.929898895,mol/L,198.269,3.4133000000000013,24.06,2.0,2.0
[K+].CC(C)CCCCCCCCCCCCCCC([O-])=O,water,298,-8.146901524,mol/L,322.574,1.8576999999999986,40.129999999999995,0.0,2.0
CC(C)(C)c1cc(c(O)c(c1)C(C)(C)C)c2cc(cc(c2O)C(C)(C)C)C(C)(C)C,water,298,-8.613463367,mol/L,410.6420000000002,7.954800000000009,40.46,2.0,2.0
CC(C)(C)CC(C)(C)c1ccc(O)c(c1)n2nc3ccccc3n2,water,298,-8.208763733,mol/L,323.44000000000005,4.839900000000005,50.94,1.0,4.0
CCN(CCOc1ccc(cc1)C2CCCCC2)c3ccc(C=C(C#N)C#N)c(C)c3,water,298,-8.386094856,mol/L,413.5650000000001,6.378580000000007,60.05,0.0,4.0
CC(C)(C)c1cc(c(O)c(c1)C(C)(C)C)c2cc(cc(c2O)C(C)(C)C)C(C)(C)C,water,298,-6.889187497,mol/L,410.6420000000002,7.954800000000009,40.46,2.0,2.0
CCCCCCCCCCCCCCCCCCO,water,298,-8.39077619,mol/L,270.50099999999986,6.240200000000008,20.23,1.0,1.0
[K+].CC(C)CCCCCCCCCCCCCCC([O-])=O,water,298,-8.66353132,mol/L,322.574,1.8576999999999986,40.129999999999995,0.0,2.0
CCCCCCCCCCCCCCCCCCOC=C,water,298,-8.703443717,mol/L,296.53899999999993,7.4080000000000075,9.23,0.0,1.0
COc1ccccc1N\N=C2/C(=O)C=Cc3ccccc23,water,298,-8.926016432,mol/L,278.311,3.1073000000000013,50.69,1.0,4.0
CCCCCCCCCCCCCCCCCC(=O)OC,water,298,-8.997839085,mol/L,298.51099999999997,6.420900000000007,26.3,0.0,2.0
CC(C)CCCCCCCOC(=O)c1ccccc1C(=O)OCCCCCCCC(C)C,water,298,-9.419539808,mol/L,446.6720000000004,7.993400000000009,52.60000000000001,0.0,4.0
O=[V](=O)O[V](=O)=O,water,298,-2.303614127,mol/L,181.88299999999998,-0.5486,77.51,0.0,5.0
CCC(COCCOC(=O)C=C)(COCCOC(=O)C=C)COCCOC(=O)C=C,water,298,-2.687445856,mol/L,428.4780000000003,1.6202,106.59,0.0,9.0
Oc1ccc(cc1)C(c2ccc(O)cc2)c3ccccn3,water,298,-4.523907797,mol/L,277.32300000000004,3.6730000000000027,53.35,2.0,3.0
CC(C)(c1ccc(OCCO)cc1)c2ccc(OCCO)cc2,water,298,-2.660126263,mol/L,316.39700000000005,2.7547000000000015,58.92,2.0,4.0
[OH-].[OH-].[OH-].[OH-].[OH-].[O--].[O--].[O--].[O--].[O--].[V].[V].[V].[V].[V].[V].[O-][P]([O-])([O-])=O.[O-][P]([O-])([O-])=O.[O-][P]([O-])([O-])=O.[O-][P]([O-])([O-])=O.[O-][P]([O-])([O-])=O,water,298,-1.350363781,mol/L,945.5440000000008,-15.615999999999996,723.7499999999998,0.0,25.0
[Ag].OC(O)=O,water,298,-3.452021679,mol/L,169.892,0.21989999999999993,57.53,2.0,1.0
CC(CCC=O)C1C(=CCCC1(C)C)C,water,298,-5.540631832,mol/L,208.34499999999994,3.9841000000000033,17.07,0.0,1.0
[K+].[O-][S](=O)(=O)C(F)(F)C(F)(F)C(F)(F)C(F)(F)F,water,298,-0.808172449,mol/L,338.18799999999993,-1.0387,57.199999999999996,0.0,3.0
[K+].CCCCCCCCCCCCO[P](O)([O-])=O,water,298,-3.784486057,mol/L,304.40799999999996,0.38859999999999945,69.59,1.0,3.0
CCCCCCCCC(C)C=O,water,298,-3.532234443,mol/L,170.296,3.5720000000000027,17.07,0.0,1.0
[F-].[F-].[F-].[Al+3],water,298,-4.199879315,mol/L,83.976,-9.3688,0.0,0.0,0.0
C=CCOC(=O)c1ccccc1C(=O)OCC=C,water,298,-3.729584717,mol/L,246.26199999999994,2.3722000000000003,52.60000000000001,0.0,4.0
[Si],water,298,-2.795277378,mol/L,28.086,-0.3808,0.0,0.0,0.0
OC(=O)c1ccccc1C(=O)c2ccc(cc2)c3ccccc3,water,298,-4.828233467,mol/L,302.329,4.282800000000003,54.37,1.0,2.0
[O-][N+](=O)N1CN(CN(CN(C1)[N+]([O-])=O)[N+]([O-])=O)[N+]([O-])=O,water,298,-4.82511681,mol/L,296.156,-2.195199999999998,185.52,0.0,8.0
CC(=O)[C@H]1CCC(=CCCC=C(C)CCC1=C)C.CC(=O)[C@@H]2CCC(=CCCC=C(C)CCC2=C)C.CC(=O)[C@H]3CCC(=CCCC=C(C)CC=C3C)C.CC(=O)[C@@H]4CCC(=CCCC=C(C)CC=C4C)C.CC/5=C/CC\C=C(C)/CC/C(=C(/C)CC5)C(C)=O,water,298,-5.449126022,mol/L,1231.9699999999991,25.11710000000004,85.35,0.0,5.0
CCC(C)(N=NC(C)(CC)C#N)C#N,water,298,-2.696191526,mol/L,192.266,2.8231600000000014,72.3,0.0,4.0
N[C@@H](CCC(O)=O)C(O)=O.OCCN(CCO)CCO,water,298,0.111437809,mol/L,296.32000000000005,-2.4715999999999974,164.54999999999998,6.0,7.0
[O-][N+](=O)N1CN(CN(C1)[N+]([O-])=O)[N+]([O-])=O,water,298,-3.762250575,mol/L,222.117,-1.6463999999999996,139.14000000000001,0.0,6.0
C=CCOc1nc(OCC=C)nc(OCC=C)n1,water,298,-2.883452414,mol/L,249.26999999999998,1.5659999999999998,66.36,0.0,6.0
c1ccc2ccccc2c1,water,298,-3.619249221,mol/L,128.17399999999995,2.839800000000001,0.0,0.0,0.0
Oc1ccc(c(O)c1O)C(=O)c2ccc(O[S](=O)(=O)c3cccc4C(=O)C(=CCc34)N=NN=N)cc2,water,298,-5.105290731,mol/L,508.46800000000025,3.8229700000000024,199.13000000000002,4.0,10.0
[O-][N+](=O)N1CN(CN(CN(C1)[N+]([O-])=O)[N+]([O-])=O)[N+]([O-])=O,water,298,-4.963664664,mol/L,296.156,-2.195199999999998,185.52,0.0,8.0
C.O[S](O)(=O)=O,water,298,-4.580248119,mol/L,114.12199999999999,-0.016699999999999826,74.6,2.0,2.0
ClC(=C)C=C,water,298,-2.550925455,mol/L,88.53699999999999,1.9249,0.0,0.0,0.0
C=C[S](=O)(=O)C[S](=O)(=O)C=C,water,298,-3.91989545,mol/L,196.24899999999997,0.06050000000000022,68.28,0.0,4.0
FC(F)(F)F,water,298,-3.670339628,mol/L,88.00300000000001,1.4756999999999998,0.0,0.0,0.0
CC(C)(c1ccccc1)c2ccc(O)cc2,water,298,-4.096484707,mol/L,212.29199999999997,3.7181000000000024,20.23,1.0,1.0
CCCC(CC)COC(=O)CCc1cc(c(O)c(c1)C(C)(C)C)C(C)(C)C,water,298,-0.350549123,mol/L,376.58100000000013,6.289300000000007,46.53,1.0,3.0
CCCSc1nc(Cl)c(c(Cl)n1)[N+]([O-])=O,water,298,-4.386944624,mol/L,268.125,3.1937000000000015,68.91999999999999,0.0,5.0
[Na+].[Na+].[O-]C(=O)c1ccccc1C2=C3C=C(Br)C(=O)C(=C3Oc4c(Br)c([O-])c(Br)cc24)Br,water,298,-0.840017595,mol/L,691.8590000000002,-0.940099999999997,93.4,0.0,5.0
CO[S](C)(=O)=O,water,298,-0.041921413,mol/L,110.13399999999999,-0.40759999999999996,43.370000000000005,0.0,3.0
[Na+].[Na+].[O-]C(=O)c1ccccc1C2=C3C=CC(=O)C=C3Oc4cc([O-])ccc24,water,298,-3.575505364,mol/L,376.27500000000015,-3.9900999999999964,93.4,0.0,5.0
O=[P](Oc1ccccc1)(Oc2ccccc2)Oc3ccccc3,water,298,-5.367473066,mol/L,326.288,5.331500000000003,44.760000000000005,0.0,4.0
CCCCCC/C=C/CCCCCCCc1cccc(OCC2CO2)c1.CCC/C=C/C/C=C/CCCCCCCc3cccc(OCC4CO4)c3.C=CC/C=C/C/C=C/CCCCCCCc5cccc(OCC6CO6)c5,water,298,-6.079851689,mol/L,1069.6499999999994,19.949699999999996,65.28,0.0,6.0
CC(C)=O.C=O.N(c1ccccc1)c2ccccc2,water,298,-5.969586401,mol/L,257.333,3.840600000000002,46.17,1.0,3.0
COC(C)COC(C)COCCC[Si](C)(O[Si](C)(C)C)O[Si](C)(C)O[Si](C)(C)C,water,298,-6.287739939,mol/L,484.9310000000002,5.326500000000006,55.38000000000001,0.0,6.0
O=[P](Oc1ccccc1)(Oc2ccccc2)Oc3ccccc3,water,298,-6.212571106,mol/L,326.288,5.331500000000003,44.760000000000005,0.0,4.0
CCCCCCCCCCCCCCCCOC(=O)Oc1c(Cl)cc(cc1Cl)C(=O)OCC,water,298,-7.133803789,mol/L,503.5070000000002,9.1668,61.83,0.0,5.0
OC(=O)\C=C\C(O)=O,water,298,-7.286576217,mol/L,116.07199999999999,-0.28819999999999985,74.6,2.0,2.0
[Cu++].CCCCCCCC\C=C/CCCCCCCC([O-])=O.CCCCCCCC\C=C/CCCCCCCC([O-])=O,water,298,-11.99893786,mol/L,626.4660000000002,9.5451,80.25999999999999,0.0,4.0
Cl.OC(=O)[C@@H]1C[C@H](CN1)C2CCCCC2,water,298,0.631268384,mol/L,233.73899999999995,2.0512,49.33,2.0,2.0
O=C1NC2CC1C=C2,water,298,0.936160808,mol/L,109.12799999999999,0.06089999999999973,29.1,1.0,1.0
O=C1N(CC2CO2)C(=O)N(CC3CO3)C(=O)N1CC4CO4,water,298,-1.518904191,mol/L,297.267,-2.6318999999999972,103.59,0.0,9.0
CCCCCCCCCCCCOC(=O)C(C)O,water,298,-4.421069795,mol/L,258.40199999999993,3.831300000000003,46.53,1.0,3.0
O=C(Nc1ccccc1SSc2ccccc2NC(=O)c3ccccc3)c4ccccc4,water,298,-4.756438311,mol/L,456.59200000000016,6.990600000000005,58.2,2.0,4.0
C1CCC(CC1)c2ccccc2,water,298,-4.341502278,mol/L,160.26000000000002,3.734300000000003,0.0,0.0,0.0
CCCCCCCCCCCC(=O)OCC(O)CO,water,298,-5.43838569,mol/L,274.40099999999995,2.8037000000000014,66.76,2.0,4.0
CC1=CCC2CC1C2(C)C,water,298,-3.453057022,mol/L,136.238,2.9987000000000013,0.0,0.0,0.0
[Na+].[Na+].[K+].[K+].Nc1c(cc(c(N)c1N=Nc2ccc(cc2)[S](=O)(=O)CCO[S]([O-])(=O)=O)[S]([O-])(=O)=O)N=Nc3ccc(cc3[S]([O-])(=O)=O)[S](=O)(=O)CCO[S]([O-])(=O)=O,water,298,-0.289144621,mol/L,973.0040000000002,-11.993000000000015,417.02,2.0,24.0
[Na+].CCCCc1ccc2[n-]nnc2c1,water,298,0.404025656,mol/L,197.217,-1.066399999999999,39.88,0.0,2.0
CC1=CCC2CC1C2(C)C,water,298,-3.490845583,mol/L,136.238,2.9987000000000013,0.0,0.0,0.0
CC1=CCC2CC1C2(C)C,water,298,-3.642936566,mol/L,136.238,2.9987000000000013,0.0,0.0,0.0
CC1=CCC2CC1C2(C)C,water,298,-2.924783245,mol/L,136.238,2.9987000000000013,0.0,0.0,0.0
CC1=CCC2CC1C2(C)C,water,298,-3.06984027,mol/L,136.238,2.9987000000000013,0.0,0.0,0.0
CC1=CCC2CC1C2(C)C,water,298,-3.772570424,mol/L,136.238,2.9987000000000013,0.0,0.0,0.0
CC(C)(c1ccc(OCC2CO2)cc1)c3ccc(OCC4CO4)cc3,water,298,-4.799620032,mol/L,340.4190000000001,3.567700000000002,43.519999999999996,0.0,4.0
CCCCCCCCCCCCCCCCN(C)C,water,298,-4.652434914,mol/L,269.51699999999994,6.029300000000006,3.24,0.0,1.0
CC(C)C1CC2=C(C)CC1C(C2)C=O,water,298,-3.850854284,mol/L,192.302,3.2039000000000017,17.07,0.0,1.0
CCCCCCCCCCCCN(C)C,water,298,-4.727152739,mol/L,213.40899999999996,4.468900000000004,3.24,0.0,1.0
CCCCCCCCCCCCN(C)C,water,298,-4.426122744,mol/L,213.40899999999996,4.468900000000004,3.24,0.0,1.0
CCCCC,water,298,-3.339728415,mol/L,72.151,2.1965000000000003,0.0,0.0,0.0
[Na+].[Na+].[Na+].[Na+].CCN(c1ccccc1)c2nc(Cl)nc(Nc3cc(cc4cc(c(N=Nc5ccc6c(cccc6[S]([O-])(=O)=O)c5[S]([O-])(=O)=O)c(O)c34)[S]([O-])(=O)=O)[S]([O-])(=O)=O)n2,water,298,-0.50252635,mol/L,954.2180000000004,-7.51360000000001,327.68999999999994,2.0,20.0
Clc1ccc(Oc2cccc(Cl)c2)cc1,water,298,-5.387355317,mol/L,239.101,4.785700000000003,9.23,0.0,1.0
Clc1ccc(Oc2cccc(Cl)c2)cc1,water,298,-5.539732302,mol/L,239.101,4.785700000000003,9.23,0.0,1.0
CCCCC(CC)C(=O)OCC(COCC(COC(=O)CCCCCC(C)C)(COC(=O)C(CC)CCCC)COC(=O)C(CC)CCCC)(COC(=O)CCCCCC(C)C)COC(=O)CCCCCC(C)C,water,298,-7.323686796,mol/L,1053.5539999999987,14.703699999999975,167.03,0.0,13.0
CCN(CC)CCCNc1nc(Nc2ccc(cc2)N=Nc3c(O)c4c(Nc5nc(NCC(C)N)nc(NCC(C)N)n5)cc(cc4cc3[S](O)(=O)=O)[S](O)(=O)=O)nc(Nc6ccc(cc6)N=Nc7c(O)c8c(Nc9nc(NCC(C)N)nc(NCC(C)N)n9)cc(cc8cc7[S](O)(=O)=O)[S](O)(=O)=O)n1.CC(O)C(O)=O,water,298,-0.794219043,mol/L,1618.7970000000007,6.383200000000008,696.5100000000002,21.0,39.0
CCc1ccccc1.CCc2cc(CC)c(CC)cc2CC.CCC(C)(c3ccccc3)c4ccccc4.Cc5ccccc5.Cc6ccccc6c7ccccc7.Cc8cccc9ccccc89.C=Cc%10ccccc%10.C%11CCC(CC%11)c%12ccccc%12.C(Cc%13ccccc%13)c%14ccccc%14.c%15ccccc%15.c%16ccc(cc%16)c%17ccccc%17,water,298,-4.80302069,mol/L,1588.4030000000002,33.96896000000007,0.0,0.0,0.0
Cl.CCCCCCCCCCCC(=O)N[C@@H](CCCNC(N)=N)C(=O)OCC,water,298,-0.231611963,mol/L,421.02600000000024,3.6402699999999992,117.3,4.0,4.0
OC(=O)Cc1ccc(Cl)cc1Cl,water,298,-2.950110757,mol/L,205.04,2.6205000000000007,37.3,1.0,1.0
CCC(=O)/C=C/C1C(=CCCC1(C)C)C,water,298,-3.992340979,mol/L,206.32899999999992,3.904200000000003,17.07,0.0,1.0
CC(=O)C(\C)=C/C1C(=CCCC1(C)C)C,water,298,-3.992340979,mol/L,206.32899999999992,3.904200000000003,17.07,0.0,1.0
CC(C)[C@@H]1CC[C@@H](C)C[C@H]1OC(C)=O,water,298,-3.97511656,mol/L,198.30599999999998,3.0103000000000018,26.3,0.0,2.0
CC(=O)CC(=O)Nc1ccc(NC(=O)CC(C)=O)cc1,water,298,-3.12750109,mol/L,276.292,1.5217999999999998,92.34,2.0,4.0
[OH-].[Cr+3].[O-][S]([O-])(=O)=O,water,298,-2.916627632,mol/L,165.06599999999997,-1.5172999999999999,110.25999999999999,0.0,5.0
[Cl-].CCCCCCCCCCCC(=O)OCC[N+](C)(C)C,water,298,-2.211100306,mol/L,321.93300000000005,1.1607000000000007,26.3,0.0,2.0
CCc1ccc(CC)cc1.CC(C)c2ccccc2.Cc3ccccc3.Cc4cc(C)cc(C)c4.C5CCc6ccccc6C5.C7Cc8ccccc8C7.C9C=Cc%10ccccc9%10.c%11ccccc%11.c%12ccc%13ccccc%13c%12,water,298,-3.87073364,mol/L,1039.589,21.75128000000002,0.0,0.0,0.0
CCCCC.CCc1ccccc1.Cc2ccccc2.Cc3cccc(C)c3.C4CCCC4,water,298,-3.503949163,mol/L,446.7630000000004,10.694459999999992,0.0,0.0,0.0
Cc1ccccc1.C=Cc2ccccc2.c3ccccc3,water,298,-3.29226715,mol/L,274.40700000000004,6.011220000000006,0.0,0.0,0.0
O=C(OCc1ccccc1)c2ccccc2,water,298,-4.177624494,mol/L,212.248,3.0436000000000014,26.3,0.0,2.0
O=[S](=O)(c1ccccc1)c2ccccc2,water,298,-4.192879941,mol/L,218.277,2.519400000000001,34.14,0.0,2.0
C=CC(=O)N1CCOCC1,water,298,0.850257585,mol/L,141.17,0.031199999999999894,29.540000000000003,0.0,2.0
COCC(C)O,water,298,1.045169179,mol/L,90.122,0.013600000000000112,29.46,1.0,2.0
[Na+].[Na+].[O-]C(=O)CCC([O-])=O,water,298,-0.209654395,mol/L,162.052,-8.725600000000002,80.25999999999999,0.0,4.0