Solute,Solvent,Temperature_K,Solubility,Units,MW,LogP,TPSA,HBD,HBA
NC(=O)c1ccccc1C(N)=O,water,298,-2.4371,mol/L,164.16399999999996,-0.11559999999999981,86.18,2.0,2.0
OC(=O)c1ccccc1C(O)=O,water,298,-1.3772,mol/L,166.13199999999998,1.083,74.6,2.0,2.0
COc1ccc(OC)c(c1)[N+]([O-])=O,water,298,-3.1167,mol/L,183.16299999999998,1.6119999999999999,61.6,0.0,4.0
OC(=O)Cc1ccccc1C(O)=O,water,298,-1.0515,mol/L,180.15899999999996,1.0119,74.6,2.0,2.0
Nc1ccc(Cl)cc1[N+]([O-])=O,water,298,-2.538,mol/L,172.571,1.8304,69.16,1.0,3.0
Oc1ccc(Cl)cc1[N+]([O-])=O,water,298,-3.0902,mol/L,173.55499999999998,1.9538,63.37,1.0,3.0
OCC(O)C(O)C1OC(=O)C(O)C1O,water,298,0.3348,mol/L,208.166,-3.6523,127.45000000000002,5.0,7.0
CC(C)c1cc(Cl)c(C)cc1O,water,298,-2.2664,mol/L,184.666,3.4774200000000026,20.23,1.0,1.0
CC(C)[C@@H]1CC[C@@H](C)C[C@H]1O,water,298,-2.5346,mol/L,156.269,2.439500000000001,20.23,1.0,1.0
CC(C)C1CCC(C)CC1=O,water,298,-2.3506,mol/L,154.253,2.6477000000000013,17.07,0.0,1.0
OC(=O)c1ccc(O)cc1O,water,298,-1.426,mol/L,154.12099999999998,0.7959999999999998,77.76,3.0,3.0
COc1ccccc1N,water,298,-0.9901,mol/L,123.15499999999999,1.2773999999999999,35.25,1.0,2.0
Brc1cccc2ccccc12,water,298,-4.3468,mol/L,207.07,3.6023000000000014,0.0,0.0,0.0
C1CCN2C[C@@H]3C[C@@H](CN4CCCC[C@H]34)[C@@H]2C1,water,298,-1.8871,mol/L,234.38699999999992,2.3451000000000004,6.48,0.0,2.0
COC(=CC(O)=O)C(=O)C(C)=C,water,298,-0.9299,mol/L,170.16399999999996,0.7464999999999999,63.6,1.0,3.0
OCC1OC(=O)C(O)C(O)C1O,water,298,0.5201,mol/L,178.14000000000001,-3.0132,107.22000000000001,4.0,6.0
CN(C)c1ccc(cc1)C(=O)c2ccc(cc2)N(C)C,water,298,-2.8267,mol/L,268.35999999999996,3.0496000000000016,23.550000000000004,0.0,3.0
N#Cc1ccccc1C#N,water,298,-2.5111,mol/L,128.13399999999996,1.4299600000000001,47.58,0.0,2.0
C1CCC2CCCCC2C1,water,298,-5.1918,mol/L,138.254,3.3668000000000022,0.0,0.0,0.0
c1ccc2nccnc2c1,water,298,0.7051,mol/L,130.15,1.6297999999999997,25.78,0.0,2.0
Nc1ccc2ccccc2c1,water,298,-2.8795,mol/L,143.189,2.4220000000000006,26.02,1.0,1.0
Nc1nc(N)nc(n1)c2ccccc2,water,298,-2.4942,mol/L,187.20600000000005,0.7029999999999998,90.71,2.0,5.0
CN(C)CCN(Cc1sccc1)c2ccccn2,water,298,-2.6383,mol/L,261.394,2.7113000000000014,19.37,0.0,4.0
Oc1ccc(cc1O)c2ccccc2,water,298,-2.0659,mol/L,186.21,2.764800000000001,40.46,2.0,2.0
c1ccc(cc1)c2cccc(c2)c3ccccc3,water,298,-5.183,mol/L,230.30999999999997,5.0206000000000035,0.0,0.0,0.0
[Cl-].CN(C)c1ccc2nc3cc(C)c(N)cc3[s+]c2c1,water,298,-0.9034,mol/L,305.834,0.6912200000000012,42.150000000000006,1.0,3.0
Oc1cc2ccccc2cc1O,water,298,-2.7377,mol/L,160.17199999999997,2.251000000000001,40.46,2.0,2.0
CCN(CCO)c1ccccc1,water,298,-1.9171,mol/L,165.236,1.5051999999999999,23.47,1.0,2.0
Nc1ccc2cc3ccc(N)cc3nc2c1,water,298,0.3783,mol/L,209.25199999999998,2.5524000000000004,64.93,2.0,3.0
CC(=O)c1ccc(cc1)c2ccccc2,water,298,-3.3104,mol/L,196.249,3.5562000000000022,17.07,0.0,1.0
[O-][N+](=O)c1ccc(cc1)c2ccccc2,water,298,-5.2094,mol/L,199.209,3.261800000000002,43.14,0.0,2.0
COc1ccc(OC)c(C=O)c1,water,298,-2.3202,mol/L,166.176,1.5163,35.53,0.0,3.0
CC(=O)c1ccc2ccccc2c1,water,298,-2.7964,mol/L,170.21099999999998,3.0424000000000015,17.07,0.0,1.0
OC(=O)c1ccc2ccccc2n1,water,298,-1.0911,mol/L,173.171,1.9329999999999998,50.19,1.0,2.0
COc1ccccc1OCC(O)CO,water,298,-0.5982,mol/L,198.21799999999996,0.4272000000000001,58.92,2.0,4.0
COc1ccc(CC=C)cc1OC,water,298,-2.552,mol/L,178.231,2.4323000000000006,18.46,0.0,2.0
Cc1ccc2ccc(C)nc2c1,water,298,-1.9424,mol/L,157.21599999999998,2.8516400000000006,12.89,0.0,1.0
ClCC(=O)N(CC=C)CC=C,water,298,-0.9452,mol/L,173.64299999999997,1.4258,20.310000000000002,0.0,1.0
OC(=O)CCCOc1cc(Cl)c(Cl)cc1Cl,water,298,-3.8294,mol/L,283.538,3.8904000000000014,46.53,1.0,2.0
CC(=O)CC(=O)c1ccccc1,water,298,-2.6268,mol/L,162.188,1.8484,34.14,0.0,2.0
O=C(OC(=O)c1ccccc1)c2ccccc2,water,298,-4.3546,mol/L,226.231,2.6838000000000006,43.370000000000005,0.0,3.0
CC(C)OC(=O)COc1ccc(Cl)cc1Cl,water,298,-3.848,mol/L,263.12,3.323800000000002,35.53,0.0,3.0
CC(C)COC(=O)c1ccc(N)cc1,water,298,-2.9437,mol/L,193.24599999999998,2.0816,52.32,1.0,3.0
CCOc1ccc(cc1)C(=O)OCCN(CC)CC,water,298,-2.7145,mol/L,265.3529999999999,2.5839000000000008,38.77,0.0,4.0
CCCCOC(=O)c1ccc(N)cc1,water,298,-2.7611,mol/L,193.24599999999998,2.2257,52.32,1.0,3.0
[I-].CN1C=CC=C\C1=C/[NH+]=O,water,298,-0.7405,mol/L,264.06600000000003,-3.3058999999999985,34.28,1.0,2.0
CCCCOC(=O)COc1ccc(Cl)cc1Cl,water,298,-3.78,mol/L,277.147,3.7155000000000022,35.53,0.0,3.0
Cc1cc(Cl)ccc1OCCCC(O)=O,water,298,-3.678,mol/L,228.67499999999995,2.8920200000000005,46.53,1.0,2.0
Clc1ccc(OCCOC(=O)c2ccccc2)c(Cl)c1,water,298,-3.8118,mol/L,311.164,4.229200000000002,35.53,0.0,3.0
CCCC(O)C(CC)CO,water,298,-0.5418,mol/L,146.23,1.1659,40.46,2.0,2.0
CCN(CC)C(=S)SCC(Cl)=C,water,298,-3.3498,mol/L,223.79399999999998,3.0988000000000016,3.24,0.0,2.0
CCC(CC)C(=O)OCCOCCOCCOC(=O)C(CC)CC,water,298,-3.2386,mol/L,346.46400000000006,2.9784000000000015,71.06,0.0,6.0
C\C(NO)=C(/C)N=O,water,298,-2.2868,mol/L,116.12,0.9830000000000001,61.69,2.0,4.0
Cc1ccc(N)cc1C,water,298,-1.5036,mol/L,121.183,1.88564,26.02,1.0,1.0
Cc1ccc(Cl)c(Cl)c1,water,298,-3.7919,mol/L,161.031,3.301820000000001,0.0,0.0,0.0
Oc1ccc(Cl)c(Cl)c1,water,298,-1.2458,mol/L,163.00300000000001,2.6990000000000007,20.23,1.0,1.0
CCOC(=O)C(=O)OCC,water,298,-0.6085,mol/L,146.14199999999997,0.11260000000000003,52.60000000000001,0.0,4.0
ClCC(Br)CBr,water,298,-2.2836,mol/L,236.33399999999997,2.3836000000000004,0.0,0.0,0.0
OCC(Br)CBr,water,298,-0.6222,mol/L,217.88799999999998,1.1371,20.23,1.0,1.0
ClCC(Cl)CCl,water,298,-1.9255,mol/L,147.43200000000002,2.0713999999999997,0.0,0.0,0.0
CCC(N)CO,water,298,1.0499,mol/L,89.13799999999999,-0.2840000000000001,46.25,2.0,2.0
OCC(O)CCl,water,298,0.9565,mol/L,110.54000000000002,-0.4216,40.46,2.0,2.0
CC\C(C)=N\O,water,298,0.0599,mol/L,87.12199999999999,1.2465,32.59,1.0,2.0
COC(=O)CCl,water,298,-0.3728,mol/L,108.52400000000002,0.3981999999999999,26.3,0.0,2.0
CC1CCCO1,water,298,0.2069,mol/L,86.134,1.1853,9.23,0.0,1.0
O=C1CCCO1,water,298,1.065,mol/L,86.09,0.3234,26.3,0.0,2.0
O=C1OCCO1,water,298,1.0552,mol/L,88.062,0.1532,35.53,0.0,3.0
CC(O[P](C)(F)=O)C(C)(C)C,water,298,-0.9383,mol/L,182.17499999999998,3.230000000000002,26.3,0.0,2.0
CC(C)(C)c1ccc(O)c(c1)C(C)(C)C,water,298,-3.7705,mol/L,206.32899999999995,3.987200000000003,20.23,1.0,1.0
CC(C)N(CCO)C(C)C,water,298,-1.0829,mol/L,145.24599999999998,1.0975,23.47,1.0,2.0
CC(C)[C@H](NC(C)=O)C(O)=O,water,298,-0.3599,mol/L,159.18499999999997,0.2316999999999998,66.4,2.0,2.0
CN1CCCCC1C(=O)Nc2c(C)cccc2C,water,298,-1.5465,mol/L,246.35399999999998,2.7262400000000007,32.34,1.0,2.0
COc1ccc(N)c(c1)[N+]([O-])=O,water,298,-3.1465,mol/L,168.152,1.1855999999999998,78.38999999999999,1.0,4.0
Oc1c(Cl)cc(Cl)cc1Sc2cc(Cl)cc(Cl)c2O,water,298,-4.9495,mol/L,356.057,5.862600000000001,40.46,2.0,3.0
Cc1ccccc1N=Nc2ccc(N)c(C)c2,water,298,-4.5077,mol/L,225.29500000000002,4.301040000000003,50.739999999999995,1.0,3.0
NC(=O)NC1NC(=O)NC1=O,water,298,-1.4778,mol/L,158.117,-2.1798,113.32,4.0,3.0
CCCC(C)C(O)=O,water,298,-0.889,mol/L,116.15999999999998,1.5072,37.3,1.0,1.0
CCOC(=O)C(C)O,water,298,0.9276,mol/L,118.13199999999998,-0.06970000000000004,46.53,1.0,3.0
OC(=O)CC(=C)C(O)=O,water,298,-0.2289,mol/L,130.099,0.10190000000000005,74.6,2.0,2.0
CC(C)COC(=O)C(C)C,water,298,-2.159,mol/L,144.21399999999997,1.8416000000000001,26.3,0.0,2.0
CCC(CC)CO,water,298,-1.4073,mol/L,102.17699999999999,1.4149,20.23,1.0,1.0
OCC1CCCO1,water,298,0.9908,mol/L,102.13300000000001,0.15769999999999995,29.46,1.0,2.0
OCc1occc1,water,298,1.0083,mol/L,98.10099999999998,0.7719,33.370000000000005,1.0,2.0
Nc1cccc(c1)C(F)(F)F,water,298,-1.4704,mol/L,161.12599999999998,2.2876000000000003,26.02,1.0,1.0
CC(C)(C)c1ccc(O)c(O)c1,water,298,-1.9197,mol/L,166.21999999999997,2.3953000000000015,40.46,2.0,2.0
COc1ccc(cc1N)[S](O)(=O)=O,water,298,-0.8997,mol/L,203.219,0.5241,89.62,2.0,4.0
Nc1cc(ccc1C(O)=O)[S](O)(=O)=O,water,298,-1.3157,mol/L,217.20199999999997,0.2136999999999999,117.69,3.0,4.0
CC(C)(C)C1CCC(O)CC1,water,298,-3.1939,mol/L,156.26899999999995,2.5836000000000006,20.23,1.0,1.0
CC1=CC[C@@H](CC1)C(C)(C)O,water,298,-2.337,mol/L,154.25300000000001,2.5037000000000007,20.23,1.0,1.0
Cl[S](=O)(=O)c1ccc(I)cc1,water,298,-4.2686,mol/L,302.52,2.2187,34.14,0.0,2.0
CC(N)c1ccccc1,water,298,-0.4602,mol/L,121.18299999999995,1.7063000000000001,26.02,1.0,1.0
CC(O)c1ccccc1,water,298,-1.7969,mol/L,122.16699999999996,1.7399,20.23,1.0,1.0
ClC(Cl)c1ccccc1,water,298,-2.809,mol/L,161.031,3.1628000000000016,0.0,0.0,0.0
OC(=O)c1ccccn1,water,298,0.892,mol/L,123.11099999999998,0.7797999999999999,50.19,1.0,2.0
OCc1ccccc1O[C@@H]2O[C@H](COC(=O)c3ccccc3)[C@@H](O)[C@H](O)[C@H]2O,water,298,-2.8925,mol/L,390.388,0.22229999999999983,125.68000000000002,4.0,8.0
COC(=O)c1cc(O)c(O)c(O)c1,water,298,-1.2399,mol/L,184.147,0.5899999999999996,86.99000000000001,3.0,5.0
Nc1c(Cl)cc(cc1Cl)[N+]([O-])=O,water,298,-4.4709,mol/L,207.01599999999996,2.4838000000000005,69.16,1.0,3.0
OC(=O)C1=CC(=O)C=C(O1)C(O)=O,water,298,-1.1097,mol/L,184.10299999999998,0.036199999999999954,104.81,2.0,4.0
CC(=C)C1CC=C(C)C(=O)C1,water,298,-2.0628,mol/L,150.22099999999998,2.4879000000000007,17.07,0.0,1.0
Nc1cc(ccc1O)[N+]([O-])=O,water,298,-2.2217,mol/L,154.12499999999997,0.8825999999999998,89.38999999999999,2.0,4.0
COc1ccc(cc1N)[N+]([O-])=O,water,298,-3.165,mol/L,168.152,1.1856,78.38999999999999,1.0,4.0
CCC(C)c1ccc(O)cc1,water,298,-2.1945,mol/L,150.22099999999998,2.9057000000000013,20.23,1.0,1.0
CC1CCC(CC1)C(C)C,water,298,-5.6998,mol/L,140.26999999999998,3.468700000000003,0.0,0.0,0.0
CC(C)C1=CCC(=CC1)C,water,298,-4.1958,mol/L,136.23799999999997,3.308900000000002,0.0,0.0,0.0
Oc1ccc(cc1)[N+]([O-])=O,water,298,-1.0789,mol/L,139.10999999999999,1.3003999999999998,63.37,1.0,3.0
OC(=O)c1ccc(cc1)C(O)=O,water,298,-4.0444,mol/L,166.13199999999998,1.083,74.6,2.0,2.0
CCN(CC)CCO,water,298,0.9311,mol/L,117.192,0.32050000000000006,23.47,1.0,2.0
C=CC1CCC=CC1,water,298,-3.3352,mol/L,108.18399999999998,2.5287000000000006,0.0,0.0,0.0
NCc1ccccc1,water,298,0.97,mol/L,107.15599999999996,1.1453,26.02,1.0,1.0
N#Cc1ccncc1,water,298,-0.4154,mol/L,104.11199999999998,0.9532799999999999,36.68,0.0,2.0
N#Cc1cccnc1,water,298,0.1128,mol/L,104.11199999999998,0.9532799999999999,36.68,0.0,2.0
OCc1cccnc1,water,298,0.9621,mol/L,109.12799999999999,0.5739,33.120000000000005,1.0,2.0
ON=C1CCCCC1,water,298,-0.7984,mol/L,113.16000000000001,1.7807,32.59,1.0,2.0
OCC1CCCCO1,water,298,0.9349,mol/L,116.16000000000001,0.5478000000000001,29.46,1.0,2.0
CCN1CCOCC1,water,298,0.9386,mol/L,115.176,0.3385,12.47,0.0,2.0
Cc1cccc(C=C)c1,water,298,-3.1232,mol/L,118.17899999999999,2.638020000000001,0.0,0.0,0.0
CC(Oc1cccc(Cl)c1)C(O)=O,water,298,-2.2232,mol/L,200.62099999999998,2.1919,46.53,1.0,2.0
Nc1ccc(Cc2ccc(N)c(Cl)c2)cc1Cl,water,298,-4.2838,mol/L,267.159,3.7486000000000015,52.04,2.0,2.0
ClCC#CCOC(=O)Nc1cccc(Cl)c1,water,298,-4.3704,mol/L,258.104,3.130700000000001,38.33,1.0,2.0
CN1[C@@H]2CC[C@H]1CC(C2)OC(=O)[C@H](CO)c3ccccc3,water,298,-1.91,mol/L,289.375,1.9309,49.769999999999996,1.0,4.0
Oc1ccc(Cc2ccccc2)cc1,water,298,-3.4009,mol/L,184.23800000000003,2.9830000000000005,20.23,1.0,1.0
Nc1ccc(Cc2ccc(N)cc2)cc1,water,298,-2.2973,mol/L,198.269,2.4418000000000006,52.04,2.0,2.0
NC(Nc1ccccc1)=Nc2ccccc2,water,298,-2.3248,mol/L,211.26799999999997,2.7449000000000012,50.41,2.0,1.0
O=C(Nc1ccccc1)Nc2ccccc2,water,298,-3.1508,mol/L,212.25199999999998,3.3306000000000013,41.13,2.0,1.0
CCc1cc(CC)cc(CC)c1,water,298,-7.0641,mol/L,162.27599999999998,3.373800000000002,0.0,0.0,0.0
CCN(CC)CN(CC)CC,water,298,-0.1995,mol/L,158.289,1.6275,6.48,0.0,2.0
CC(O)CN(CCN(CC(C)O)CC(C)O)CC(C)O,water,298,0.534,mol/L,292.42,-0.8863999999999979,87.4,4.0,6.0
C=CCN(CC=C)CC=C,water,298,-1.7395,mol/L,137.22599999999997,1.8464,3.24,0.0,1.0
OCCN(CCO)CCO,water,298,0.8263,mol/L,149.19,-1.734699999999999,63.93000000000001,3.0,4.0
CCCCN(CCO)CCCC,water,298,-1.6367,mol/L,173.29999999999995,1.8809,23.47,1.0,2.0
CCCCN(CCCC)CCCC,water,298,-3.1157,mol/L,185.35499999999993,3.6887000000000025,3.24,0.0,1.0
CCCCC(CC)COC(=O)C=C,water,298,-3.2655,mol/L,184.27899999999997,2.9320000000000013,26.3,0.0,2.0
CCCCC(CC)COC(=O)CCCCC(=O)OCC(CC)CCCC,water,298,-5.6768,mol/L,370.5740000000002,6.066000000000007,52.60000000000001,0.0,4.0
BrCCc1ccccc1,water,298,-3.6757,mol/L,185.06400000000002,2.6240000000000006,0.0,0.0,0.0
CNCc1ccccc1,water,298,0.9166,mol/L,121.18299999999995,1.406,12.03,1.0,1.0
CCNc1ccccc1,water,298,-1.7007,mol/L,121.18299999999995,2.1184,12.03,1.0,1.0
CN(C)Cc1ccccc1,water,298,-1.0518,mol/L,135.20999999999998,1.7482,3.24,0.0,1.0
CC(=O)Nc1ccc(C)cc1,water,298,-2.0946,mol/L,149.19299999999998,1.95342,29.1,1.0,1.0
CC(=O)Nc1ccc(cc1)[N+]([O-])=O,water,298,-1.9132,mol/L,180.16299999999998,1.5531999999999997,72.24000000000001,1.0,3.0
CC(=O)Nc1ccc(cc1)/C=N/NC(N)=S,water,298,-3.429,mol/L,236.3,0.8120999999999998,79.51,3.0,3.0
Cc1ccc(cc1)[S](O)(=O)=O,water,298,0.5564,mol/L,172.20499999999998,1.24172,54.37,1.0,2.0
CCOCCOC(=O)/C=C/c1ccc(OC)cc1,water,298,-2.6995,mol/L,250.294,2.2881,44.760000000000005,0.0,4.0
OCC(O)COc1ccc(Cl)cc1,water,298,-1.3067,mol/L,202.63700000000003,1.072,49.69,2.0,3.0
CCCCCCCCCc1ccc(O)cc1,water,298,-4.498,mol/L,220.35600000000002,4.685300000000005,20.23,1.0,1.0
COc1ccc(\C=C\C)cc1,water,298,-3.1256,mol/L,148.20499999999998,2.728300000000001,9.23,0.0,1.0
CCCCCCCCCCc1ccccc1,water,298,-7.959,mol/L,218.38400000000001,5.369800000000005,0.0,0.0,0.0
CCCCC(CC)CO,water,298,-2.1702,mol/L,130.231,2.1951000000000005,20.23,1.0,1.0
OCC1CCC(CO)O1,water,298,0.8789,mol/L,132.159,-0.4814000000000002,49.69,2.0,3.0
Cc1ccc(C=O)cc1,water,298,-1.7235,mol/L,120.15099999999998,1.80752,17.07,0.0,1.0
CCc1ccc(C)nc1,water,298,-1.0042,mol/L,121.18299999999998,1.9524199999999998,12.89,0.0,1.0
COc1ccc(N)cc1,water,298,-0.7683,mol/L,123.15499999999999,1.2773999999999999,35.25,1.0,2.0
COc1ccc(CO)cc1,water,298,-1.8394,mol/L,138.166,1.1874999999999998,29.46,1.0,2.0
CCCC(C)CO,water,298,-1.2312,mol/L,102.17699999999999,1.4149,20.23,1.0,1.0
CCCC(O)C#C,water,298,-0.4121,mol/L,98.14499999999998,0.7806,20.23,1.0,1.0
CCOC(=O)CCl,water,298,-0.8005,mol/L,122.551,0.7883,26.3,0.0,2.0
COC(=O)CC(C)=O,water,298,0.6341,mol/L,116.116,0.13849999999999985,43.370000000000005,0.0,3.0
CCC(C)OC(C)=O,water,298,-1.2727,mol/L,116.15999999999998,1.3479999999999999,26.3,0.0,2.0
CCCC(=O)OCC,water,298,-1.3749,mol/L,116.15999999999998,1.3496000000000001,26.3,0.0,2.0
CCOC(=O)CC#N,water,298,-0.7525,mol/L,113.116,0.46318,50.09,0.0,3.0
CN(CCO)CCO,water,298,0.9239,mol/L,119.16399999999999,-1.0972000000000002,43.7,2.0,3.0
CCCC(=O)OCCOC(=O)CCC,water,298,-2.6069,mol/L,202.24999999999994,1.6729999999999998,52.6,0.0,4.0
CCCCOC(=O)\C=C/C(=O)OCCCC,water,298,-2.6595,mol/L,228.28799999999993,2.2291999999999996,52.60000000000001,0.0,4.0
COCCOC(=O)CCCCC(=O)OCCOC,water,298,-1.2665,mol/L,262.3019999999999,0.9259999999999999,71.06,0.0,6.0
CC(C)=CCC\C(C)=C\CO,water,298,-3.1882,mol/L,154.253,2.6714000000000016,20.23,1.0,1.0
CC(C)=CCC\C(C)=C/CO,water,298,-2.4631,mol/L,154.253,2.6714000000000016,20.23,1.0,1.0
CCCCCCC(=O)OCC,water,298,-2.7369,mol/L,158.24099999999999,2.5199000000000007,26.3,0.0,2.0
CCCCCCCC(=O)OCC,water,298,-3.3907,mol/L,172.26799999999997,2.910000000000001,26.3,0.0,2.0
Oc1ccc(O)cc1.O=C2C=CC(=O)C=C2,water,298,-1.7305,mol/L,218.208,1.3483999999999998,74.6,2.0,4.0
CCCCC(=O)CC,water,298,-1.4242,mol/L,114.18799999999999,2.1557000000000004,17.07,0.0,1.0
CCCOC(=O)CC,water,298,-1.3406,mol/L,116.15999999999998,1.3496000000000001,26.3,0.0,2.0
O=C1CNC(=O)CN1,water,298,-0.8312,mol/L,114.104,-1.7675999999999992,58.2,2.0,2.0
CC(O)COC(C)CO,water,298,0.8723,mol/L,134.175,-0.2354,49.69,2.0,3.0
COC(=O)CCC(=O)OC,water,298,-0.7668,mol/L,146.142,0.11259999999999981,52.60000000000001,0.0,4.0
CCCCCC(=O)CC,water,298,-1.693,mol/L,128.21499999999997,2.5458000000000007,17.07,0.0,1.0
CCCCCC(=O)OC,water,298,-1.9917,mol/L,130.18699999999998,1.7397,26.3,0.0,2.0
COC(=O)CCCCCCCCC(=O)OC,water,298,-3.2831,mol/L,230.30399999999995,2.4532000000000007,52.60000000000001,0.0,4.0
CCC1CO1,water,298,0.1197,mol/L,72.107,0.7952,12.53,0.0,1.0
BrCC#C,water,298,-0.9022,mol/L,118.96099999999998,1.0145,0.0,0.0,0.0
CCC#C,water,298,-1.2753,mol/L,54.09199999999999,1.0295999999999998,0.0,0.0,0.0
CCCS,water,298,-1.6021,mol/L,76.16399999999999,1.3262,0.0,1.0,1.0
ClCCBr,water,298,-1.3177,mol/L,143.411,1.6200999999999999,0.0,0.0,0.0
ClCC=C,water,298,-1.3562,mol/L,76.52600000000001,1.4112,0.0,0.0,0.0
OCCCl,water,298,1.0941,mol/L,80.51400000000001,0.21749999999999997,20.23,1.0,1.0
CC(C)I,water,298,-2.201,mol/L,169.993,1.8298,0.0,0.0,0.0
NCC=C,water,298,1.2434,mol/L,57.096,0.13110000000000005,26.02,1.0,1.0
ClCC#N,water,298,0.1221,mol/L,75.498,0.74878,23.79,0.0,1.0
NCCN,water,298,1.2211,mol/L,60.09999999999999,-1.0962,52.04,2.0,2.0
OCC=C,water,298,1.236,mol/L,58.080000000000005,0.16469999999999996,20.23,1.0,1.0
OCC#C,water,298,1.2513,mol/L,56.064,-0.3881000000000001,20.23,1.0,1.0
OCCO,water,298,1.2071,mol/L,62.068000000000005,-1.0290000000000001,40.46,2.0,2.0
O=CC=O,water,298,1.2363,mol/L,58.036,-0.6158000000000001,34.14,0.0,2.0
COC=C,water,298,-0.5879,mol/L,58.080000000000005,0.7763,9.23,0.0,1.0
COC=O,water,298,0.5832,mol/L,60.05200000000001,-0.2108000000000001,26.3,0.0,2.0
NCC[S](O)(=O)=O,water,298,-0.1906,mol/L,125.14899999999997,-1.1670999999999996,80.39,2.0,3.0
OCC[S](O)(=O)=O,water,298,0.8992,mol/L,126.13299999999998,-1.1334999999999997,74.6,2.0,3.0
CC(O)CC(C)(C)O,water,298,0.9275,mol/L,118.17599999999999,0.5282,40.46,2.0,2.0
CC(C)O[P](C)(F)=O,water,298,0.8536,mol/L,140.094,2.2038,26.3,0.0,2.0
C[Si](C)(C)O[Si](C)(C)C,water,298,-5.242,mol/L,162.38099999999997,2.6728000000000005,9.23,0.0,1.0
CCO[P](=O)(OCC)O[P](=O)(OCC)OCC,water,298,0.5373,mol/L,290.189,3.3652000000000024,80.29,0.0,7.0
C[Si](C)(C)O[Si](C)(C)O[Si](C)(C)C,water,298,-6.8424,mol/L,236.53599999999997,3.391200000000002,18.46,0.0,2.0
CCCCO[P](O)(=O)OCCCC,water,298,-1.0874,mol/L,210.20999999999995,2.720200000000001,55.760000000000005,1.0,3.0
NC(=O)OCC(Cl)(Cl)Cl,water,298,-1.2843,mol/L,192.429,1.4519,52.32000000000001,1.0,2.0
COC(C)(C)CC(C)=O,water,298,0.3326,mol/L,130.18699999999998,1.3905,26.3,0.0,2.0
CC(C)CCBr,water,298,-2.886,mol/L,151.047,2.4274000000000004,0.0,0.0,0.0
CCCC(C)C,water,298,-3.7893,mol/L,86.178,2.442500000000001,0.0,0.0,0.0
CC(O)CCO,water,298,1.0452,mol/L,90.122,-0.25039999999999996,40.46,2.0,2.0
CC(O)CC=O,water,298,1.055,mol/L,88.106,-0.043800000000000006,37.3,1.0,2.0
NC(=O)CC#N,water,298,0.1893,mol/L,84.078,-0.6146200000000002,66.88,1.0,2.0
CCCC(O)=O,water,298,-0.1669,mol/L,88.10599999999998,0.8711,37.3,1.0,1.0
C/C=C/C(O)=O,water,298,0.0382,mol/L,86.08999999999999,0.6471,37.3,1.0,1.0
NCCC(O)=O,water,298,0.7865,mol/L,89.09399999999998,-0.5802,63.32,2.0,2.0
CNCC(O)=O,water,298,0.5273,mol/L,89.09399999999998,-0.7096000000000002,49.33,2.0,2.0
COCC(C)O,water,298,1.0452,mol/L,90.122,0.013600000000000112,29.46,1.0,2.0
CN(C)CCO,water,298,1.0499,mol/L,89.13799999999999,-0.45970000000000016,23.47,1.0,2.0
CC(C)CC(C)C,water,298,-4.2605,mol/L,100.20499999999998,2.6885000000000012,0.0,0.0,0.0
CC(C)CC(C)O,water,298,-0.7945,mol/L,102.17699999999998,1.4133,20.23,1.0,1.0
CC(C)NC(C)C,water,298,0.0363,mol/L,101.19299999999998,1.3927999999999998,12.03,1.0,1.0
CC(C)OC(C)=O,water,298,-0.5192,mol/L,102.133,0.9579,26.3,0.0,2.0
CC(=O)OC(C)=O,water,298,0.0702,mol/L,102.089,0.09600000000000009,43.370000000000005,0.0,3.0
C=C1OC(=O)C=C1,water,298,-0.9827,mol/L,96.08499999999998,0.6131,26.3,0.0,2.0
CCO[P](=O)(OCC)Oc1cc(C)[nH]n1,water,298,-2.3696,mol/L,234.192,2.2780199999999997,73.44,1.0,5.0
Cc1cccc(Cl)c1,water,298,-3.5228,mol/L,126.586,2.6484200000000007,0.0,0.0,0.0
CC1OC(C)OC(C)OC(C)O1,water,298,-2.8997,mol/L,176.212,1.4504,36.92,0.0,4.0
CCOC(=O)CC(C)C,water,298,-1.8135,mol/L,130.18699999999998,1.5956000000000001,26.3,0.0,2.0
Oc1cc(O)cc(O)c1,water,298,-1.0754,mol/L,126.11099999999996,0.8033999999999999,60.69,3.0,3.0
Cc1cc(C)nc(C)c1,water,298,-0.5394,mol/L,121.18299999999999,2.00686,12.89,0.0,1.0
Nc1nc(N)nc(N)n1,water,298,-1.5916,mol/L,126.12300000000002,-1.3818000000000001,116.72999999999999,3.0,6.0
O=C1NC(=O)NC(=O)N1,water,298,-1.8098,mol/L,129.075,-2.2485000000000004,98.57999999999998,3.0,3.0