Solute,Solvent,Temperature_K,Solubility,Units,MW,LogP,TPSA,HBD,HBA
N[C@@H](Cc1cc(I)c(O)c(I)c1)C(O)=O,water,298,-2.8583,mol/L,432.98300000000006,1.5557999999999998,83.55000000000001,3.0,3.0
c1cnc2c(c1)ccc3cccnc23,water,298,-1.826,mol/L,180.20999999999998,2.7830000000000004,25.78,0.0,2.0
Cc1ncc(CO)c(C=O)c1O,water,298,0.4758,mol/L,167.164,0.40041999999999983,70.42,2.0,4.0
[O-][N+](=O)c1oc(cc1)/C=N/N2CC(=O)NC2=O,water,298,-3.4765,mol/L,238.15899999999996,0.07350000000000018,118.04999999999998,1.0,6.0
CC(=O)N/N=C/c1oc(cc1)[N+]([O-])=O,water,298,-2.5958,mol/L,197.15,0.6577999999999999,97.74000000000001,1.0,5.0
CO,water,298,1.4943,mol/L,32.042,-0.3915,20.23,1.0,1.0
CC(C)O,water,298,1.2211,mol/L,60.096000000000004,0.38710000000000006,20.23,1.0,1.0
CC(C)=O,water,298,1.236,mol/L,58.080000000000005,0.5952999999999999,17.07,0.0,1.0
C[S](C)=O,water,298,1.1072,mol/L,78.136,-0.005299999999999971,17.07,0.0,1.0
CN1C(=O)[C@]23CC4=CC=C[C@H](O)[C@H]4N2C(=O)[C@@]1(CO)SS3,water,298,-3.6687,mol/L,326.399,-0.3036999999999995,81.08000000000001,2.0,6.0
OC(=O)CS,water,298,1.0357,mol/L,92.119,0.0008000000000000229,37.3,2.0,2.0
C[C@]12CC[C@H]3[C@@H](CCC4=CC(=O)CC[C@H]34)[C@@H]1CC[C@@]2(O)C#C,water,298,-4.6271,mol/L,298.426,3.4925000000000024,37.3,1.0,2.0
Nc1ccc(cc1)[S](=O)(=O)Nc2ncccn2,water,298,-3.5119,mol/L,250.28300000000002,0.8596000000000001,97.97,2.0,5.0
O=C1N=CNc2nc[nH]c12,water,298,-2.2888,mol/L,136.11399999999998,-0.35380000000000006,74.43,2.0,3.0
CC1(C)S[C@@H]2[C@H](NC(=O)[C@H](N)c3ccccc3)C(=O)N2[C@H]1C(O)=O,water,298,-1.539,mol/L,349.4120000000001,0.3181000000000002,112.72999999999999,3.0,5.0
OCC(O)C(O)C(O)C(O)CO,water,298,0.0746,mol/L,182.172,-3.5854000000000004,121.38000000000001,6.0,6.0
OCC1OC(OC2C(O)C(O)C(O)OC2CO)C(O)C(O)C1O,water,298,0.3577,mol/L,342.297,-5.397199999999993,189.52999999999997,8.0,11.0
O=C1NC(=O)C2=C(N1)NC(=O)N2,water,298,-3.4526,mol/L,168.112,-1.7672000000000003,114.36999999999998,4.0,3.0
Oc1c(Cl)cc(Cl)c(Cl)c1Cc2c(O)c(Cl)cc(Cl)c2Cl,water,298,-3.4634,mol/L,406.90700000000004,6.609000000000001,40.46,2.0,2.0
[O-][N+](=O)c1ccc(F)c(c1)[N+]([O-])=O,water,298,-2.6677,mol/L,186.09799999999998,1.6421,86.28,0.0,4.0
NC(CC(N)=O)C(O)=O,water,298,-0.6525,mol/L,132.119,-1.7263000000000002,106.41,3.0,3.0
CC(=O)N(O)CCCCCNC(=O)CCC(=O)N(O)CCCCCNC(=O)CCC(=O)N(O)CCCCCN,water,298,-1.6695,mol/L,560.6930000000002,0.9221000000000046,205.84,6.0,9.0
NC(Cc1[nH]cnc1)C(O)=O,water,298,-0.5314,mol/L,155.15699999999998,-0.6359000000000006,92.0,3.0,3.0
CCCO,water,298,1.2211,mol/L,60.096,0.3887,20.23,1.0,1.0
NC1=CC=NC(=O)N1,water,298,-1.1426,mol/L,111.104,-0.6479000000000001,71.77,2.0,3.0
C[C@H]1O[C@H](C[C@H](O)[C@@H]1O)O[C@H]2[C@@H](O)C[C@@H](O[C@@H]2C)O[C@H]3[C@@H](O)C[C@@H](O[C@@H]3C)O[C@H]4CC[C@@]5(C)[C@H](CC[C@@H]6[C@@H]5CC[C@]7(C)[C@H](CC[C@]67O)C8=CC(=O)OC8)C4,water,298,-5.2926,mol/L,764.9499999999998,3.247300000000002,182.82999999999998,5.0,13.0
[Na+].CC(O)C([O-])=O,water,298,0.9505,mol/L,112.05999999999999,-4.878899999999998,60.36,1.0,3.0
CC(O)C(N)C(O)=O,water,298,-0.0892,mol/L,119.11999999999999,-1.2208999999999997,83.55000000000001,3.0,3.0
ClC1=C(Cl)C2(Cl)C3C4CC(C5OC45)C3C1(Cl)C2(Cl)Cl,water,298,-6.1829,mol/L,380.913,4.481400000000002,12.53,0.0,1.0
COc1ccc(cc1)C(c2ccc(OC)cc2)C(Cl)(Cl)Cl,water,298,-6.5386,mol/L,345.6529999999999,5.205900000000002,18.46,0.0,2.0
Oc1ccc2C(=O)c3ccccc3C(=O)c2c1O,water,298,-2.7785,mol/L,240.214,1.8732000000000002,74.6,2.0,4.0
CCc1ccc(cc1)C(C(Cl)Cl)c2ccc(CC)cc2,water,298,-6.4875,mol/L,307.26400000000007,5.747000000000004,0.0,0.0,0.0
NC(Cc1c[nH]c2ccccc12)C(O)=O,water,298,-1.183,mol/L,204.22899999999998,1.1223,79.11000000000001,3.0,2.0
Nc1ncnc2nc[nH]c12,water,298,-2.1179,mol/L,135.13,-0.0648999999999999,80.47999999999999,2.0,4.0
CC[C@H](C)[C@H](N)C(O)=O,water,298,-0.5813,mol/L,131.17499999999998,0.44439999999999996,63.32,2.0,2.0
N[S](=O)(=O)c1cc2c(NC(Cc3ccccc3)N[S]2(=O)=O)cc1C(F)(F)F,water,298,-3.5913,mol/L,421.4220000000001,1.6254,118.35999999999999,3.0,5.0
CCC1NC(=O)c2cc(c(Cl)cc2N1)[S](N)(=O)=O,water,298,-3.2859,mol/L,289.7440000000001,0.8788,101.28999999999999,3.0,4.0
NC(CCCN=C(N)N)C(O)=O,water,298,0.019,mol/L,174.204,-1.548099999999999,127.72,4.0,3.0
C,water,298,-2.8629,mol/L,16.043,0.6361,0.0,0.0,0.0
CC,water,298,-2.6985,mol/L,30.07,1.0262,0.0,0.0,0.0
C=C,water,298,-2.3307,mol/L,28.053999999999995,0.8022,0.0,0.0,0.0
C#C,water,298,-1.3364,mol/L,26.037999999999997,0.24939999999999998,0.0,0.0,0.0
CN,water,298,1.5413,mol/L,31.058,-0.4251,26.02,1.0,1.0
C#N,water,298,1.5682,mol/L,27.025999999999996,0.13978,23.79,0.0,1.0
CCC,water,298,-2.8492,mol/L,44.096999999999994,1.4163,0.0,0.0,0.0
CC#C,water,298,-1.0417,mol/L,40.065000000000005,0.6395,0.0,0.0,0.0
ClC=C,water,298,-0.8514,mol/L,62.499,1.3687,0.0,0.0,0.0
CCN,water,298,1.346,mol/L,45.084999999999994,-0.03499999999999981,26.02,1.0,1.0
CC#N,water,298,1.3867,mol/L,41.053,0.52988,23.79,0.0,1.0
NC=O,water,298,1.3464,mol/L,45.041,-0.8985000000000001,43.09,1.0,1.0
ON=C,water,298,0.5768,mol/L,45.041000000000004,0.07619999999999999,32.59,1.0,2.0
CSC,water,298,-0.4503,mol/L,62.137,0.9792,0.0,0.0,1.0
C1CO1,water,298,1.356,mol/L,44.053,0.016600000000000004,12.53,0.0,1.0
BrC(Br)Br,water,298,-1.9113,mol/L,252.731,2.4547,0.0,0.0,0.0
CC(C)Br,water,298,-1.5874,mol/L,122.993,1.7897,0.0,0.0,0.0
ClC(Cl)Br,water,298,-1.7327,mol/L,163.829,2.1425,0.0,0.0,0.0
CC(C)I,water,298,-2.0843,mol/L,169.993,1.8298,0.0,0.0,0.0
CC(C)N,water,298,1.2283,mol/L,59.111999999999995,0.35350000000000004,26.02,1.0,1.0
IC(I)I,water,298,-3.5952,mol/L,393.731,2.575,0.0,0.0,0.0
CC1CN1,water,298,1.2434,mol/L,57.096,-0.021899999999999975,21.94,1.0,1.0
C[As](C)(O)=O,water,298,1.1612,mol/L,137.998,0.11099999999999993,37.3,1.0,1.0
CC(C)(C)N,water,298,1.1359,mol/L,73.13900000000001,0.7436,26.02,1.0,1.0
CC(C)(C)O,water,298,1.13,mol/L,74.12299999999999,0.7771999999999999,20.23,1.0,1.0
CC(F)(F)Cl,water,298,-1.856,mol/L,100.495,1.8379,0.0,0.0,0.0
FC(F)(F)F,water,298,-3.6703,mol/L,88.00300000000001,1.4756999999999998,0.0,0.0,0.0
C[S](O)(=O)=O,water,298,1.0173,mol/L,96.107,-0.49599999999999983,54.37,1.0,2.0
CC(C)(O)C#N,water,298,1.07,mol/L,85.10600000000001,0.2808800000000001,44.019999999999996,1.0,2.0
FC(F)(F)CCl,water,298,-1.1098,mol/L,118.48500000000001,1.7874999999999999,0.0,0.0,0.0
OCC(F)(F)F,water,298,0.9998,mol/L,100.03900000000002,0.5410000000000001,20.23,1.0,1.0
[O-]C(=O)C(Br)(Br)Br,water,298,-0.1713,mol/L,295.73199999999997,0.5748,40.129999999999995,0.0,2.0
CC(=O)C(C)(C)C,water,298,-0.7219,mol/L,100.16099999999999,1.6215,17.07,0.0,1.0
CC(C)(C)C(O)=O,water,298,-0.6727,mol/L,102.13299999999998,1.1171,37.3,1.0,1.0
CC(Cl)(Cl)C(O)=O,water,298,0.5455,mol/L,142.969,1.2648000000000001,37.3,1.0,1.0
CC(O)C(Cl)(Cl)Cl,water,298,-0.7574,mol/L,163.431,1.7374,20.23,1.0,1.0
OC(=O)C(Cl)(Cl)Cl,water,298,-0.476,mol/L,163.387,1.4412,37.3,1.0,1.0
OC(=O)C(F)(F)Cl,water,298,0.8845,mol/L,130.47700000000003,0.9026000000000001,37.3,1.0,1.0
OC(=O)C(F)(F)F,water,298,0.943,mol/L,114.02200000000002,0.6333,37.3,1.0,1.0
FC(F)(Cl)C(Cl)(Cl)Cl,water,298,-3.3093,mol/L,203.83,3.1882,0.0,0.0,0.0
FC(Cl)(Cl)C(F)(Cl)Cl,water,298,-3.2301,mol/L,203.83,3.1882,0.0,0.0,0.0
FC(F)(F)C(F)(F)Cl,water,298,-3.4254,mol/L,154.46500000000003,2.3803,0.0,0.0,0.0
FC(F)(F)C(F)(F)F,water,298,-4.2489,mol/L,138.01000000000002,2.1109999999999998,0.0,0.0,0.0
CC1(C)C2CCC1(C)C(=O)C2,water,298,-1.9784,mol/L,152.237,2.401700000000001,17.07,0.0,1.0
OC1(C(=O)NC(=O)NC1=O)C2(O)C(=O)NC(=O)NC2=O,water,298,-1.9942,mol/L,286.156,-4.819399999999998,191.0,6.0,8.0
CC1(C)O[C@@H]2C[C@H]3[C@@H]4CCC5=CC(=O)C=C[C@]5(C)[C@@]4(F)[C@@H](O)C[C@]3(C)[C@@]2(O1)C(=O)CO,water,298,-4.3158,mol/L,434.50400000000025,2.4188000000000005,93.06000000000002,2.0,6.0
CC(C)(CO)[N+]([O-])=O,water,298,1.4681,mol/L,119.11999999999999,0.033999999999999975,63.37,1.0,3.0
CC(Cl)C(Cl)(Cl)C(O)O,water,298,-0.8666,mol/L,193.45700000000002,1.0982999999999998,40.46,2.0,2.0
ClC1C=CC2C1C3(Cl)C(=C(Cl)C2(Cl)C3(Cl)Cl)Cl,water,298,-6.3168,mol/L,373.3209999999999,5.2415,0.0,0.0,0.0
COc1ccc2C[C@@H]3[C@@H]4C=C[C@H](O)[C@@H]5Oc1c2[C@]45CCN3C,water,298,-1.522,mol/L,299.37000000000006,1.5011,41.93,1.0,4.0
CCOc1ccc2C[C@@H]3[C@@H]4C=C[C@H](O)[C@@H]5Oc1c2[C@]45CCN3C,water,298,-2.079,mol/L,313.3970000000001,1.8911999999999998,41.93,1.0,4.0
Cc1cc(ccc1N)C(O)(c2ccc(N)cc2)c3ccc(N)cc3,water,298,-3.0272,mol/L,319.4080000000001,3.0258200000000004,98.28999999999999,4.0,4.0
OC(c1ccccc1)(c2ccccc2)c3ccccc3,water,298,-2.2596,mol/L,260.336,3.970800000000003,20.23,1.0,1.0
CC1(C(=O)NC(=O)NC1=O)c2ccccc2,water,298,-2.4581,mol/L,218.21200000000002,0.31029999999999963,75.27000000000001,2.0,3.0
Oc1ccc(cc1)C2(OC(=O)c3ccccc23)c4ccc(O)cc4,water,298,-2.9008,mol/L,318.32800000000003,3.560100000000002,66.76,2.0,4.0
CC(C)CC1(CC=C)C(=O)NC(=O)NC1=O,water,298,-2.1193,mol/L,224.26,0.9609999999999999,75.27000000000001,2.0,3.0
N[S](=O)(=O)c1cc(ccc1Cl)C2(O)NC(=O)c3ccccc23,water,298,-3.4507,mol/L,338.7720000000001,0.9242000000000007,109.49000000000001,3.0,4.0
CC(CO)(CO)[N+]([O-])=O,water,298,0.7724,mol/L,135.119,-0.9936,83.6,2.0,4.0
CCC(C)(O)CC,water,298,-0.38,mol/L,102.17699999999998,1.5574,20.23,1.0,1.0
CCC(C)(O)C#C,water,298,0.0038,mol/L,98.14499999999997,0.7806,20.23,1.0,1.0
CCO[P](=O)(C#N)N(C)C,water,298,-0.2186,mol/L,162.129,1.25868,53.330000000000005,0.0,3.0
NC(CO)(CO)CO,water,298,0.6571,mol/L,121.136,-2.3391999999999995,86.71000000000001,4.0,4.0
CCCCOC(=O)CC(CC(=O)OCCCC)(OC(C)=O)C(=O)OCCCC,water,298,-4.9058,mol/L,402.4840000000002,3.0984000000000016,105.2,0.0,8.0
OC(=O)CC(O)(CC(O)=O)C(O)=O,water,298,0.4887,mol/L,192.123,-1.2485,132.13000000000002,4.0,4.0
CCOC(=O)CC(O)(CC(=O)OCC)C(=O)OCC,water,298,-0.6285,mol/L,276.28499999999997,0.18700000000000006,99.13000000000001,1.0,7.0
CCC(CO)(CO)CO,water,298,0.8723,mol/L,134.17499999999998,-0.6403000000000001,60.69,3.0,3.0
[O-][N+](=O)OCC(CO[N+]([O-])=O)(CO[N+]([O-])=O)CO[N+]([O-])=O,water,298,-3.8664,mol/L,316.135,-1.1939999999999997,209.48,0.0,12.0
CCC(C)(CC)OC(N)=O,water,298,-1.5599,mol/L,145.20199999999997,1.6604,52.32,1.0,2.0
Cc1ccc(O[P](=O)(Oc2ccc(C)cc2)Oc3ccc(C)cc3)cc1,water,298,-6.0892,mol/L,368.3690000000001,6.256760000000005,44.760000000000005,0.0,4.0
CCCC(C)(COC(N)=O)COC(=O)NC(C)C,water,298,-2.9384,mol/L,260.334,2.0227,90.65,2.0,4.0
CCCCO[P](=O)(CCCC)OCCCC,water,298,-2.6995,mol/L,250.3189999999999,4.613000000000004,35.53,0.0,3.0
CCCCOCCO[P](=O)(OCCOCCCC)OCCOCCCC,water,298,-2.559,mol/L,398.47700000000026,4.594400000000005,72.45000000000002,0.0,7.0
CO[P](=S)(OC)SCc1nc(N)nc(N)n1,water,298,-3.069,mol/L,281.303,0.7865,109.17,2.0,9.0
CC1=CC(=O)CC(C)(C)C1,water,298,-1.0614,mol/L,138.20999999999998,2.3218000000000005,17.07,0.0,1.0
CC(C)(N=NC(C)(C)C#N)C#N,water,298,-2.6713,mol/L,164.212,2.04296,72.3,0.0,4.0
CC(C)=CCCC(C)(O)C=C,water,298,-1.9871,mol/L,154.253,2.6698000000000013,20.23,1.0,1.0
BrCC(Br)Br,water,298,-2.7272,mol/L,266.758,2.4972000000000003,0.0,0.0,0.0
CC(Br)CBr,water,298,-2.1498,mol/L,201.889,2.1647,0.0,0.0,0.0
CCC(C)C,water,298,-3.177,mol/L,72.151,2.0524,0.0,0.0,0.0
CC(=C)C=C,water,298,-2.0257,mol/L,68.11900000000001,1.7485,0.0,0.0,0.0
CC(C)CN,water,298,1.1359,mol/L,73.139,0.6011000000000001,26.02,1.0,1.0
CC(C)C=O,water,298,0.0914,mol/L,72.107,0.8412999999999999,17.07,0.0,1.0
CC(=C)C=O,water,298,-0.1467,mol/L,70.09100000000001,0.7614000000000001,17.07,0.0,1.0
CCC(C)Cl,water,298,-1.9665,mol/L,92.569,2.0237,0.0,0.0,0.0
CC(Cl)CCl,water,298,-1.6059,mol/L,112.98700000000001,1.8525,0.0,0.0,0.0
ClCC(Cl)=C,water,298,-1.7128,mol/L,110.971,1.9777,0.0,0.0,0.0
CC(=O)CCl,water,298,-0.012,mol/L,92.525,0.8142,17.07,0.0,1.0
CC(O)CN,water,298,1.1243,mol/L,75.111,-0.6741000000000001,46.25,2.0,2.0
CCC(Cl)Cl,water,298,-1.6217,mol/L,112.987,2.2001,0.0,0.0,0.0
OC(=O)CBr,water,298,1.1002,mol/L,138.948,0.46590000000000004,37.3,1.0,1.0
OC(=O)C=C,water,298,1.1423,mol/L,72.06300000000002,0.25700000000000006,37.3,1.0,1.0
CNC(C)=O,water,298,1.1361,mol/L,73.095,-0.24770000000000003,29.1,1.0,1.0
NNC(N)=S,water,298,-0.9588,mol/L,91.139,-1.3067000000000002,64.07,3.0,2.0
CC(=O)OO,water,298,1.1189,mol/L,76.051,0.02249999999999991,46.53,1.0,3.0
BrC(Br)C(Br)Br,water,298,-2.7074,mol/L,345.654,3.2182000000000004,0.0,0.0,0.0
OC(=O)C(Cl)Cl,water,298,0.8896,mol/L,128.942,0.8747,37.3,1.0,1.0
CC(C)[N+]([O-])=O,water,298,-0.7194,mol/L,89.094,0.6715,43.14,0.0,2.0
CC(C)(CO)C(O)C(=O)NCCC(O)=O,water,298,0.6591,mol/L,219.23699999999997,-1.0432999999999995,106.86000000000001,4.0,4.0
CC1(C)OC(=O)C[C@@H]1C([O-])=O,water,298,-1.2449,mol/L,157.14499999999998,-0.9219999999999999,66.43,0.0,4.0
CC1(C)C2CCC(C2)C1=C,water,298,-4.4715,mol/L,136.238,2.9987000000000013,0.0,0.0,0.0
CC(C)(OO)c1ccccc1,water,298,-1.0394,mol/L,152.19299999999998,2.4113000000000007,29.46,1.0,2.0
CC(C)c1sc(N[S](=O)(=O)c2ccc(N)cc2)nn1,water,298,-3.4141,mol/L,298.393,2.0445,97.97,2.0,6.0
CC(C)(OOC(C)(C)c1ccccc1)c2ccccc2,water,298,-5.7692,mol/L,270.372,4.805200000000005,18.46,0.0,2.0
CCC(C)(C)c1ccc(O)cc1,water,298,-2.9902,mol/L,164.248,3.0798000000000014,20.23,1.0,1.0
CC(C)(O)C1CCC(C)(O)CC1,water,298,-1.2362,mol/L,172.26799999999997,1.6985,40.46,2.0,2.0
CC1=CCC2CC1C2(C)C,water,298,-4.7381,mol/L,136.238,2.9987000000000013,0.0,0.0,0.0
CC(O)C(N)C(O)=O,water,298,0.2272,mol/L,119.11999999999999,-1.2208999999999997,83.55000000000001,3.0,3.0
CC(=O)C1CC[C@H]2[C@@H]3CCC4=CC(=O)CC[C@]4(C)[C@H]3[C@H](O)C[C@]12C,water,298,-3.8202,mol/L,330.468,3.694300000000003,54.370000000000005,1.0,3.0
CN1C(c2ccc(Cl)cc2)[S](=O)(=O)CCC1=O,water,298,-2.0394,mol/L,273.741,1.6155,54.45,0.0,3.0
CC(C)(CO)[C@@H](O)C(=O)NCCCO,water,298,0.6877,mol/L,205.25399999999996,-1.1355999999999997,89.79,4.0,4.0
CC(=O)c1c(C)c(c(c(c1C)[N+]([O-])=O)C(C)(C)C)[N+]([O-])=O,water,298,-5.1901,mol/L,294.307,3.6199400000000033,103.35,0.0,5.0
C[C@H](CCC(O)=O)[C@H]1CC[C@H]2[C@@H]3[C@H](O)C[C@@H]4C[C@H](O)CC[C@]4(C)[C@H]3C[C@H](O)[C@]12C,water,298,-3.3682,mol/L,408.5790000000002,3.4487000000000023,97.99000000000001,4.0,4.0
Oc1cc(O)c2C(=O)c3ccccc3C(=O)c2c1O,water,298,-4.6024,mol/L,256.21299999999997,1.5787999999999995,94.83,3.0,5.0
CC(=O)CC(c1ccccc1)C2=C(O)Oc3ccccc3C2=O,water,298,-4.2586,mol/L,308.333,3.609600000000002,67.50999999999999,1.0,4.0
CC(=O)CC(c1ccc(Cl)cc1)C2=C(O)Oc3ccccc3C2=O,water,298,-5.836,mol/L,342.7780000000001,4.263000000000003,67.50999999999999,1.0,4.0
Oc1ccc(cc1)C(c2ccc(O)cc2)c3ccccc3C(O)=O,water,298,-3.2626,mol/L,320.3440000000001,3.976200000000002,77.75999999999999,3.0,3.0
COc1c2occc2c(OC)c3C(=O)C=C(C)Oc13,water,298,-2.3979,mol/L,260.24499999999995,2.8648200000000017,61.81,0.0,5.0
Cc1ccc2C(=O)c3ccccc3C(=O)c2c1N,water,298,-5.8541,mol/L,237.25799999999998,2.35262,60.16,1.0,3.0
O[S](=O)(=O)c1cccc2C(=O)c3cccc(c3C(=O)c12)[S](O)(=O)=O,water,298,1.2572,mol/L,368.3440000000001,0.9554000000000002,142.88,2.0,6.0
Oc1c(cc(c(O)c1[N+]([O-])=O)[N+]([O-])=O)[N+]([O-])=O,water,298,-1.6617,mol/L,245.10299999999998,0.8224000000000007,169.88,2.0,8.0
CN1CCN(CC1)C(c2ccccc2)c3ccccc3,water,298,-2.4255,mol/L,266.38800000000003,3.0234000000000014,6.48,0.0,2.0
CN1N(c2ccccc2)C(=O)C(=C1C)N,water,298,0.5543,mol/L,203.24499999999995,1.06662,52.95,1.0,4.0
CC(C)(C)C(=O)C1C(=O)c2ccccc2C1=O,water,298,-4.107,mol/L,230.26299999999998,2.2970000000000006,51.21,0.0,3.0
C[C@H]1C[C@H]2[C@@H]3CC[C@](O)(C(=O)CO)[C@@]3(C)C[C@H](O)[C@@H]2[C@@]4(C)C=CC(=O)C=C14,water,298,-3.4942,mol/L,374.4770000000001,1.8036,94.83000000000001,3.0,5.0
C[C@H](CCC(O)=O)[C@H]1CC[C@H]2[C@@H]3CC[C@@H]4C[C@H](O)CC[C@]4(C)[C@H]3C[C@H](O)[C@]12C,water,298,-3.9544,mol/L,392.58000000000015,4.477900000000005,77.76,3.0,3.0
CN1C=CC(=O)c2ccccc12,water,298,-0.9818,mol/L,159.188,1.5385,22.0,0.0,2.0
Oc1cccc2c(O)cccc12,water,298,-2.9871,mol/L,160.172,2.2509999999999994,40.46,2.0,2.0
COc1cc2OC[C@H]3Oc4c5C[C@@H](Oc5ccc4C(=O)[C@H]3c2cc1OC)C(C)=C,water,298,-6.2949,mol/L,394.42300000000023,3.7033000000000023,63.22,0.0,6.0
O[P](O)(=O)O[C@H]1[C@H](O[P](O)(O)=O)[C@@H](O[P](O)(O)=O)[C@H](O[P](O)(O)=O)[C@@H](O[P](O)(O)=O)[C@H]1O[P](O)(O)=O,water,298,0.1804,mol/L,660.0300000000004,-3.132600000000001,400.56000000000006,12.0,12.0
Cc1cc2N=C3C(=O)NC(=O)N=C3N(CC(O)C(O)C(O)CO)c2cc1C,water,298,-3.6478,mol/L,376.36900000000014,-1.7235599999999989,161.56,5.0,9.0
c1ccc(cc1)c2ccccc2c3ccccc3,water,298,-5.2692,mol/L,230.30999999999997,5.0206000000000035,0.0,0.0,0.0
COc1ccc2nccc(C(=O)C3CC4CCN3CC4C=C)c2c1,water,298,-5.0313,mol/L,322.408,3.3225000000000025,42.43,0.0,4.0
Oc1ccc2C(=O)c3cc(O)ccc3C(=O)c2c1,water,298,-5.8892,mol/L,240.214,1.8732,74.6,2.0,4.0
O=C(OC1CCCCC1)c2ccccc2C(=O)OC3CCCCC3,water,298,-4.917,mol/L,330.4240000000002,4.665600000000004,52.60000000000001,0.0,4.0
O=C(Oc1ccccc1)c2ccccc2C(=O)Oc3ccccc3,water,298,-6.5891,mol/L,318.328,4.125000000000003,52.60000000000001,0.0,4.0
CCCCCCOC(=O)c1ccccc1C(=O)OCCCCCC,water,298,-6.8254,mol/L,334.45600000000024,5.160800000000005,52.60000000000001,0.0,4.0
CCCCCCCCCCOC(=O)c1ccccc1C(=O)OCCCCCCCCCC,water,298,-9.3076,mol/L,446.6720000000005,8.281600000000006,52.60000000000001,0.0,4.0
COc1c2C=CC(=O)Oc2cc3OC(C)(C)C=Cc13,water,298,-3.81,mol/L,258.27299999999997,2.985800000000002,48.67,0.0,4.0
CN1C(=O)N(C)c2nc(Cl)[nH]c2C1=O,water,298,-1.5075,mol/L,214.612,-0.3863000000000005,72.68,1.0,5.0
OC(=O)c1ccccc1C(=O)c2ccc(Cl)cc2,water,298,-2.7171,mol/L,260.676,3.2692000000000014,54.37,1.0,2.0
OC(=O)c1ccccc1C(=O)c2ccc(O)cc2,water,298,-2.5835,mol/L,242.23,2.3214000000000006,74.6,2.0,3.0
Cc1cccc(NC(=O)c2ccccc2C(O)=O)c1,water,298,-2.407,mol/L,255.27300000000002,2.945520000000001,66.4,2.0,2.0
Nc1ccc(c2cc(ccc12)[S](O)(=O)=O)[S](O)(=O)=O,water,298,-0.2592,mol/L,303.31700000000006,0.9154000000000002,134.76,3.0,5.0
Nc1ccc(c2ccc(cc12)[S](O)(=O)=O)[S](O)(=O)=O,water,298,-1.643,mol/L,303.31700000000006,0.9154000000000002,134.76,3.0,5.0
CCCCOc1cc(C(=O)NCCN(CC)CC)c2ccccc2n1,water,298,-3.9126,mol/L,343.471,3.4853000000000023,54.46,1.0,4.0
N#CC(c1ccccc1)c2ccccc2,water,298,-2.9437,mol/L,193.249,3.342080000000002,23.79,0.0,1.0
CO[P](=S)(OC)SCN1N=Nc2ccccc2C1=O,water,298,-4.1814,mol/L,317.33200000000005,1.9994999999999998,66.24000000000001,0.0,8.0
OC(=O)c1cccc2cccnc12,water,298,-1.7447,mol/L,173.171,1.9329999999999998,50.19,1.0,2.0
COc1cc(C=O)cc(OC)c1OC,water,298,-2.1195,mol/L,196.20199999999997,1.5248999999999997,44.760000000000005,0.0,4.0
CC(C)CCOC(=O)c1ccccc1O,water,298,-3.1572,mol/L,208.257,2.5951000000000017,46.53,1.0,3.0
OCCOC(=O)c1ccccc1O,water,298,-1.1567,mol/L,182.17499999999998,0.5412999999999999,66.76,2.0,4.0
CC(=O)N[C@@H](Cc1c[nH]c2ccccc12)C([O-])=O,water,298,-2.3122,mol/L,245.25799999999998,-0.035000000000000364,85.02000000000001,2.0,3.0
Clc1ncnc2nc[nH]c12,water,298,-1.4901,mol/L,154.56,1.0062999999999998,54.46,1.0,3.0
CN(C)C(=O)Oc1cc(C)nn1c2ccccc2,water,298,-2.0886,mol/L,245.282,2.2411200000000004,47.36000000000001,0.0,4.0
Cc1cccc(C)c1N,water,298,-1.1675,mol/L,121.183,1.88564,26.02,1.0,1.0
Cc1cccc(Cl)c1O,water,298,-0.7739,mol/L,142.585,2.3540200000000007,20.23,1.0,1.0
Oc1cccc(O)c1O,water,298,0.6043,mol/L,126.11099999999998,0.8033999999999997,60.69,3.0,3.0
OC(C(O)C(O)=O)C(O)=O,water,298,0.5886,mol/L,150.08599999999998,-2.1226,115.06,4.0,4.0
Brc1c(Br)c(Br)c(Br)c(Br)c1Br,water,298,-9.5374,mol/L,551.49,6.261600000000001,0.0,0.0,0.0
ClN1C(=O)N(Cl)C(=O)N(Cl)C1=O,water,298,-1.2871,mol/L,232.41,-0.8226000000000001,66.0,0.0,6.0
OCC(O)C(O)C(O)CO,water,298,0.6253,mol/L,152.146,-2.9463000000000004,101.15,5.0,5.0
Cc1cc(O)cc(C)c1Cl,water,298,-2.7969,mol/L,156.61199999999997,2.662440000000001,20.23,1.0,1.0
Oc1c(Cl)cc(Cl)cc1Cl,water,298,-2.3924,mol/L,197.44799999999998,3.3523999999999994,20.23,1.0,1.0
CC(=O)c1sccc1,water,298,-0.9549,mol/L,126.17999999999996,1.9506999999999999,17.07,0.0,2.0
CC(C)(C)c1ccccc1O,water,298,-2.3316,mol/L,150.22099999999998,2.6897000000000015,20.23,1.0,1.0
Oc1ccc(c(c1)C(F)(F)F)[N+]([O-])=O,water,298,-1.6172,mol/L,207.10699999999997,2.3192000000000004,63.37,1.0,3.0
OC(=O)c1ccccc1Br,water,298,-2.0347,mol/L,201.01899999999995,2.1473000000000004,37.3,1.0,1.0
CCC(C)c1cc(cc(c1O)[N+]([O-])=O)[N+]([O-])=O,water,298,-3.6646,mol/L,240.21499999999997,2.7221000000000024,106.50999999999999,1.0,5.0
Oc1c(cc(cc1[N+]([O-])=O)[N+]([O-])=O)[N+]([O-])=O,water,298,-1.2562,mol/L,229.10399999999998,1.1168000000000005,149.64999999999998,1.0,7.0