Solute,Solvent,Temperature_K,Solubility,Units,MW,LogP,TPSA,HBD,HBA
COC(=O)CC(=O)OC,water,298,0.027341968,mol/L,132.115,-0.2775000000000001,52.60000000000001,0.0,4.0
[Mg].[Mg].[Mg].OC(=O)CC(O)(CC(O)=O)C(O)=O.OC(=O)CC(O)(CC(O)=O)C(O)=O,water,298,-1.546125822,mol/L,457.16100000000023,-3.6393999999999957,264.26,8.0,8.0
[Na+].OC[C@@H](O)[C@@H](O)[C@H](O)[C@@H](O)C(O)C([O-])=O,water,298,0.70666632,mol/L,248.16299999999998,-8.462899999999998,161.51,6.0,8.0
NC1=C(F)C=NC(=O)N1,water,298,-1.050208217,mol/L,129.094,-0.5088000000000001,71.77,2.0,3.0
CCOC1=C(O)C(=O)O[C@@H]1[C@@H](O)CO,water,298,0.689991055,mol/L,204.178,-0.9289000000000003,96.22000000000001,3.0,6.0
CN(C)C(=N)N(C)C,water,298,0.938622926,mol/L,115.17999999999999,0.0443699999999998,30.330000000000005,1.0,1.0
OCC(O)COC(=O)CS,water,298,0.779374207,mol/L,166.198,-1.1874,66.75999999999999,3.0,5.0
OCCOCCOCCOCCO,water,298,0.711690398,mol/L,194.22699999999998,-0.979199999999999,68.15,2.0,5.0
CC(CCO)CCO,water,298,0.927470714,mol/L,118.17599999999999,0.38730000000000003,40.46,2.0,2.0
CC(O)=O.OCCNCCO,water,298,0.782018876,mol/L,165.189,-1.3484999999999996,89.79,4.0,4.0
[Mg++].C[O-].C[O-],water,298,1.063621996,mol/L,86.373,-2.4277999999999986,46.12,0.0,2.0
CO,water,298,1.494280384,mol/L,32.042,-0.3915,20.23,1.0,1.0
CC(O)=O.OCCN(CCO)CCO,water,298,0.679351138,mol/L,209.24199999999996,-1.6437999999999988,101.23,4.0,5.0
O=[S]1(=O)CCCC1,water,298,-0.079806903,mol/L,120.173,0.19500000000000006,34.14,0.0,2.0
CC(=C)C(=O)OCCO,water,298,-0.114420814,mol/L,130.143,0.09800000000000003,46.53,1.0,3.0
CC(=C)C(N)=O,water,298,0.070039821,mol/L,85.10600000000001,0.047800000000000176,43.09,1.0,1.0
Cl.CNCC(O)c1cccc(O)c1,water,298,-0.308924931,mol/L,203.669,1.0667999999999997,52.489999999999995,3.0,3.0
COC(C)(C)CCO,water,298,-0.072529286,mol/L,118.17599999999999,0.7938000000000001,29.46,1.0,2.0
[Zn++].CCCCO[P]([S-])(=S)OCCCC.CCCCO[P]([S-])(=S)OCCCC,water,298,-2.50838394,mol/L,548.0660000000003,6.779900000000007,36.92,0.0,8.0
[Na+].[O-][S](=O)(=O)c1ccc(N\N=C2\C(=O)C=Cc3ccccc23)c4ccccc14,water,298,-2.426393048,mol/L,400.39100000000013,0.16000000000000236,98.66,1.0,6.0
[OH-].[OH-].[Cu++].[Cu++].[O-]C([O-])=O,water,298,-2.280158252,mol/L,221.11399999999998,-2.8056000000000005,123.19,0.0,5.0
[Zn++].CCCCC(CC)C([O-])=O.CCCCC(CC)C([O-])=O,water,298,0.455435409,mol/L,351.80200000000013,1.9028999999999998,80.25999999999999,0.0,4.0
[Na+].CCC(C)O[P]([S-])(=S)OC(C)CC,water,298,-2.42214317,mol/L,264.328,0.3919999999999999,18.46,0.0,4.0
CC(=O)C1C(=O)OC(=CC1=O)C,water,298,-2.526721702,mol/L,168.14799999999997,0.22129999999999994,60.440000000000005,0.0,4.0
CC(C)CCCCCC(=O)NCCCCCC(O)=O,water,298,-2.770853612,mol/L,271.40099999999995,3.3541000000000016,66.4,2.0,2.0
CC(C)C(NC(N)=O)NC(N)=O,water,298,-2.763936868,mol/L,174.20399999999998,-0.694899999999999,110.23999999999998,4.0,2.0
CC(Cl)(Cl)Cl,water,298,-2.648050853,mol/L,133.405,2.376500000000001,0.0,0.0,0.0
CCCCCCCCC(O)=O,water,298,-2.722197764,mol/L,158.241,2.821600000000001,37.3,1.0,1.0
OC(=O)c1ccc2cc(O)ccc2c1,water,298,-3.278942885,mol/L,188.182,2.2436,57.53,2.0,2.0
[Ni][Ni][Ni]=[S]=S,water,298,-4.514309168,mol/L,240.21300000000002,-0.012299999999999998,0.0,0.0,1.0
CC(C)(C)c1ccc(C=C)cc1,water,298,-4.563351028,mol/L,160.25999999999996,3.627100000000003,0.0,0.0,0.0
Cc1cc(C)cc(c1)C(Cl)=O,water,298,-3.32928972,mol/L,168.62299999999996,2.6824400000000006,17.07,0.0,1.0
[OH-].[OH-].[Cu++].[Cu++].[O-]C([O-])=O,water,298,-5.143219117,mol/L,221.11399999999998,-2.8056000000000005,123.19,0.0,5.0
o1c(cnc1c2ccccc2)c3ccccc3,water,298,-5.553210296,mol/L,221.25900000000001,4.008600000000002,26.03,0.0,2.0
O=[Mn]=O,water,298,-6.161048404,mol/L,86.93599999999999,-0.2401,34.14,0.0,2.0
CCC(N)(CO)CO,water,298,0.901578533,mol/L,119.16399999999997,-0.9215000000000002,66.48,3.0,3.0
O[Cr](=O)(=O)O[Cr](O)(=O)=O.c1ccncc1.c2ccncc2,water,298,0.399087129,mol/L,376.20500000000004,0.5006000000000002,143.75,2.0,7.0
CC(CN)CCCN,water,298,0.889006483,mol/L,116.20800000000001,0.32010000000000016,52.04,2.0,2.0
[NH3+][C@H]1CCCC[C@H]1[NH3+],water,298,0.889006483,mol/L,116.208,-1.218599999999999,55.28,2.0,0.0
[Na+].[O-]CCS,water,298,0.953730344,mol/L,100.11800000000001,-3.7194999999999996,23.06,1.0,2.0
O=C1N(CC2CO2)C(=O)N(CC3CO3)C(=O)N1CC4CO4,water,298,-1.495423095,mol/L,297.267,-2.6318999999999972,103.59,0.0,9.0
CN(C)Cc1cc(CN(C)C)c(O)c(CN(C)C)c1,water,298,0.505516371,mol/L,265.40099999999995,1.577,29.950000000000003,1.0,4.0
[Cs+].OC=O,water,298,0.674687201,mol/L,178.93,-3.2952000000000004,37.3,1.0,1.0
OC(=O)COCCOCC(O)=O,water,298,0.670925028,mol/L,178.14,-0.8111999999999999,93.06,2.0,4.0
COCNC(=O)C(C)=C,water,298,0.791965313,mol/L,129.159,0.2826,38.33,1.0,2.0
NC#N,water,298,1.279416949,mol/L,42.041,-0.57382,49.81,1.0,2.0
[Na+].[Na+].[Na+].[Na+].[Na+].[O-]C(=O)CN(CCN(CC([O-])=O)CC([O-])=O)CCN(CC([O-])=O)CC([O-])=O,water,298,0.201298437,mol/L,503.2590000000004,-24.338099999999972,210.37,0.0,13.0
CCCCNC1CC(C)(C)NC(C)(C)C1,water,298,0.57461503,mol/L,212.38099999999997,2.6853000000000007,24.06,2.0,2.0
NC(N)=O.OC[P+](CO)(CO)CO.O[S]([O-])(=O)=O,water,298,0.403692118,mol/L,312.237,-3.1683999999999997,227.45999999999998,7.0,8.0
[Na+].[Na+].[Na+].NC(=O)Nc1cc(Nc2nc(N)nc(Cl)n2)ccc1N=Nc3cc4c(cc(cc4[S]([O-])(=O)=O)[S]([O-])(=O)=O)cc3[S]([O-])(=O)=O,water,298,-1.000000587,mol/L,740.0010000000003,-7.365700000000002,328.15999999999997,4.0,17.0
[Na+].[Na+].[O-][Si](=O)O[Si]([O-])=O,water,298,0.584676017,mol/L,182.147,-9.4376,89.49000000000001,0.0,5.0
CC(C)(C)OO,water,298,0.884647226,mol/L,90.12199999999999,1.2745,29.46,1.0,2.0
[Na+].CC1=NN(C(=O)C1N\N=C\2C=C(C=C(Cl)C2=O)[N+]([O-])=O)c3ccc(cc3)[S]([O-])(=O)=O,water,298,-0.838577173,mol/L,475.80200000000025,-2.5025999999999975,174.47,1.0,10.0
O.O.O.O.O.O.[Co++].[O-][N+]([O-])=O.[O-][N](=O)=O,water,298,0.361876193,mol/L,291.031,-5.428899999999997,321.4,0.0,6.0
[Cl-].NC(N)=O.OC[P+](CO)(CO)CO,water,298,0.425111841,mol/L,250.61899999999997,-5.168999999999996,150.03,6.0,5.0
CC(O)CN(CC(C)O)C(=O)CCCCC(=O)N(CC(C)O)CC(C)O,water,298,0.210993363,mol/L,376.4940000000001,-0.2727999999999981,121.54,4.0,6.0
OC(=O)CCS,water,298,0.754917543,mol/L,106.146,0.3909000000000001,37.3,2.0,2.0
[OH-].[OH-].[OH-].[Cl-].[Cu++].[Cu++],water,298,-0.550657642,mol/L,213.566,-3.5314000000000005,90.0,0.0,3.0
[H+].[Cl-].COC(=O)C(N)CO,water,298,0.577420768,mol/L,155.581,-4.404499999999998,72.55,2.0,4.0
CC1(C)COC(=O)C1O,water,298,0.651530723,mol/L,130.143,-0.06969999999999993,46.53,1.0,3.0
[Na+].[Cr+3].Cc1nn(c([O-])c1N=Nc2cc(Cl)c(cc2[O-])[S](N)(=O)=O)c3ccccc3.Cc4nn(c([O-])c4N=Nc5cc(Cl)c(cc5[O-])[S](N)(=O)=O)c6ccccc6,water,298,-2.692470897,mol/L,886.6319999999998,1.089740000000003,297.64,2.0,16.0
CN(C)CCOCCN(C)CCO,water,298,0.476465736,mol/L,190.28699999999998,-0.5112999999999988,35.94,1.0,4.0
NC#N,water,298,1.124514989,mol/L,42.041,-0.57382,49.81,1.0,2.0
NCCN1CCNC1=O,water,298,0.63354594,mol/L,129.16299999999998,-1.0296999999999998,58.36,2.0,2.0
[Na+].[Na+].[Na+].[Na+].Nc1c(N=Nc2ccc(cc2)[S](=O)(=O)CCO[S]([O-])(=O)=O)c(cc3C=C(/C(=N/Nc4ccc(cc4)[S](=O)(=O)CCO[S]([O-])(=O)=O)C(=O)c13)[S]([O-])(=O)=O)[S]([O-])(=O)=O,water,298,-0.255286517,mol/L,991.8320000000004,-12.34420000000002,407.73999999999995,2.0,24.0
OCC(O)CO,water,298,0.776131353,mol/L,92.09400000000001,-1.6681000000000001,60.69,3.0,3.0
[Na+].[O-]C(=O)C=C,water,298,0.763856932,mol/L,94.04499999999999,-4.073699999999999,40.129999999999995,0.0,2.0
[Cl-].CC(C)(C)CC(C)(C)c1ccc(OCCOCC[N+](C)(C)Cc2ccccc2)cc1,water,298,0.083433609,mol/L,448.09100000000024,3.0764000000000022,18.46,0.0,2.0
[Cl-].CC(C)(C)CC(C)(C)c1ccc(OCCOCC[N+](C)(C)Cc2ccccc2)cc1,water,298,0.076175036,mol/L,448.09100000000024,3.0764000000000022,18.46,0.0,2.0
NC#N,water,298,1.100602832,mol/L,42.041,-0.57382,49.81,1.0,2.0
[Cl-].CC(C)(C)CC(C)(C)c1ccc(OCCOCC[N+](C)(C)Cc2ccccc2)cc1,water,298,0.072909649,mol/L,448.09100000000024,3.0764000000000022,18.46,0.0,2.0
CC(C)(CO)[C@@H](O)C(=O)NCCCO,water,298,0.394426153,mol/L,205.25399999999996,-1.1355999999999997,89.79,4.0,4.0
CN(C)CCCN1CN(CCCN(C)C)CN(CCCN(C)C)C1,water,298,0.16421307,mol/L,342.57600000000014,0.6336000000000044,19.440000000000005,0.0,6.0
[Cr].CC([O-])=O,water,298,0.653490551,mol/L,111.03999999999999,-1.2463000000000002,40.129999999999995,0.0,2.0
C[C@@H]1O[C@@H](O[C@@H]2[C@H](C)O[C@@H](O)[C@@H](O[S](O)(=O)=O)[C@@H]2O[S](O)(=O)=O)[C@@H](O[S](O)(=O)=O)[C@H](O[C@@H]3O[C@@H](C)[C@@H](O[C@@H]4O[C@@H](C)[C@@H](O)[C@@H](O[C@@H]5O[C@@H](C)[C@@H](O)[C@@H](O[S](O)(=O)=O)[C@@H]5O[S](O)(=O)=O)[C@@H]4O[S](O)(=O)=O)[C@@H](O[S](O)(=O)=O)[C@@H]3O[S](O)(=O)=O)[C@@H]1O.OC[C@@H](O)[C@@H](O)[C@H](O)[C@H](O)CO.O[C@@H]6O[C@@H]([C@@H](O[C@@H]7O[C@@H]([C@@H](O)[C@H](O)[C@@H]7O)C(O)=O)[C@H](O)[C@@H]6O)C(O)=O,water,298,-0.589205864,mol/L,1941.6720000000023,-16.967800000000004,1017.8400000000008,26.0,54.0
CC(O)CN(CC(C)O)CC(C)O,water,298,0.417320876,mol/L,191.271,-0.5691999999999999,63.93000000000001,3.0,4.0
[Cl-].NCCCC[C@H](N)C(O)=O.[H+],water,298,0.43734795,mol/L,182.65099999999998,-3.3561999999999976,89.34,3.0,3.0
[Na+].CC(C)(C[S]([O-])(=O)=O)NC(=O)C=C,water,298,0.338692866,mol/L,229.23299999999998,-3.383599999999997,86.29999999999998,1.0,4.0
CC1(O)CC(C)(O)OO1,water,298,0.571440842,mol/L,134.131,-0.24470000000000008,58.92,2.0,4.0
NCCNCCNCCNCCNCCN,water,298,0.332778733,mol/L,232.37599999999998,-2.7377999999999965,100.16,6.0,6.0
CN(C)CCCNC1CC(C)(C)NC(C)(C)C1,water,298,0.316191362,mol/L,241.42299999999997,1.8369,27.299999999999997,2.0,3.0
[Ni++].O[P](O)([O-])=O.O[P](O)([O-])=O,water,298,0.296424918,mol/L,252.66499999999996,-3.1237000000000004,161.18,4.0,4.0
[Na+].CC(C)COC(=O)CC(C(=O)OCC(C)C)[S]([O-])(=O)=O,water,298,0.177374321,mol/L,332.35,-2.307299999999996,109.80000000000001,0.0,7.0
[Na+].CC(C)CC(C)OC(=O)CC(C(=O)OC(C)CC(C)C)[S]([O-])(=O)=O,water,298,0.109625935,mol/L,388.45800000000014,-0.7500999999999969,109.80000000000001,0.0,7.0
[Na+].CCCCC(CC)CO[S]([O-])(=O)=O,water,298,0.332963796,mol/L,232.277,-1.3163999999999985,66.43,0.0,4.0
[Na+].CCC([O-])=O,water,298,0.716422901,mol/L,96.06099999999999,-3.8496999999999995,40.129999999999995,0.0,2.0
[Na+].[Na+].[Na+].OC1=CC(=O)\C(C=C1N=Nc2ccc(N=Nc3ccc(Nc4ccc(cc4[S]([O-])(=O)=O)[N+]([O-])=O)cc3)c5c2cccc5[S]([O-])(=O)=O)=N/Nc6ccc(Nc7ccc(cc7[S]([O-])(=O)=O)[N+]([O-])=O)cc6,water,298,-0.322577337,mol/L,1050.866,-1.2565999999999955,393.06999999999994,4.0,23.0
Cc1ccc(cc1)[S](O)(=O)=O.CC2(C)CC(N)CC(C)(CN)C2,water,298,0.157298187,mol/L,342.50500000000017,2.7305200000000003,106.41,3.0,4.0
[Na+].[O-]C(=O)C=C,water,298,0.715084111,mol/L,94.04499999999999,-4.073699999999999,40.129999999999995,0.0,2.0
[OH-].C[N+](C)(C)CCO,water,298,0.603205321,mol/L,121.17999999999999,-0.49190000000000017,50.230000000000004,1.0,2.0
[Na+].[K+].Oc1ccc2ccccc2c1N=Nc3ccc(cc3)N=Nc4cccc(c4)[S](=O)(=O)Nc5ccc6cc(cc(c6c5)[S]([O-])(=O)=O)[S]([O-])(=O)=O,water,298,-1.209646244,mol/L,777.8350000000003,1.146400000000001,230.23999999999998,2.0,13.0
CC(CCN)CC(C)(C)CN,water,298,0.478156217,mol/L,158.28899999999996,1.3462999999999998,52.04,2.0,2.0
[Na+].CCCCCCCCO[S]([O-])(=O)=O,water,298,0.287206306,mol/L,232.277,-1.1722999999999988,66.43,0.0,4.0
CCNc1ccc(cc1C)C(c2ccc(NCC)c(C)c2)=C3C=CC(=NCC)C(=C3)C.CC(O)=O,water,298,-1.023221287,mol/L,473.66100000000023,7.036840000000007,73.72,3.0,4.0
CCCCCCCCCCCC(=O)NCCC[N+](C)(C)C.CO[S]([O-])(=O)=O,water,298,-0.011381165,mol/L,410.62100000000015,3.2128000000000014,95.53,1.0,5.0
CC(O)CNCC(C)O,water,298,0.477585112,mol/L,133.191,-0.6623999999999999,52.489999999999995,3.0,3.0
[Na+].CCCCCCC(CCCC)CO[S]([O-])(=O)=O,water,298,0.142087324,mol/L,288.385,0.244,66.43,0.0,4.0
[Na+].[Na+].[Na+].[Na+].[Na+].NC(=O)Nc1cc(Nc2nc(Cl)nc(Nc3cc(N)c(cc3N=Nc4ccc(cc4)[S](=O)(=O)CCO[S]([O-])(=O)=O)[S]([O-])(=O)=O)n2)ccc1N=Nc5cc6c(cc(cc6[S]([O-])(=O)=O)[S]([O-])(=O)=O)cc5[S]([O-])(=O)=O,water,298,-0.510557544,mol/L,1247.4360000000001,-12.04410000000002,522.6800000000001,5.0,29.0
[Na+].[Na+].[Na+].[Na+].[Na+].[Na+].[O-][S](=O)(=O)c1ccc(cc1)N=Nc2ccc(N\N=C\3C(=O)c4ccc(NC(=O)Nc5ccc6C(=O)C(=N/Nc7ccc(cc7[S]([O-])(=O)=O)N=Nc8ccc(cc8)[S]([O-])(=O)=O)\C(=Cc6c5)[S]([O-])(=O)=O)cc4C=C3[S]([O-])(=O)=O)c(c2)[S]([O-])(=O)=O,water,298,-0.569498545,mol/L,1373.094,-13.09720000000002,516.69,4.0,29.0
[Li+].CCCCCCCCCCCCO[S]([O-])(=O)=O,water,298,0.10896299,mol/L,272.336,0.38809999999999967,66.43,0.0,4.0
[Na+].CCCCCCCCCCO[S]([O-])(=O)=O,water,298,0.102988053,mol/L,260.33099999999996,-0.39209999999999967,66.43,0.0,4.0
[K+].[Fe+3].[O-]C(=O)CN(CCN(CC([O-])=O)CC([O-])=O)CC([O-])=O,water,298,-0.092012803,mol/L,383.1550000000002,-10.408500000000007,167.0,0.0,10.0
CCCCCCCC\C=C/CCCCCCCC(=O)N(C)CC(O)=O.OCCN(CCO)CCO,water,298,0.775780406,mol/L,502.7370000000003,3.8322000000000025,121.54,4.0,6.0
CC(O)=O.OCCN(CCO)CCO,water,298,1.156472392,mol/L,209.24199999999996,-1.6437999999999988,101.23,4.0,5.0
OCC(O)=O,water,298,0.596016326,mol/L,76.051,-0.9367000000000001,57.53,2.0,2.0
[H+].[Cl-].CN(C)C(=N)N=C(N)N,water,298,0.257987497,mol/L,165.62800000000001,-4.127329999999999,91.49,3.0,1.0
N#CCN(CC#N)CC#N,water,298,-1.647557834,mol/L,134.142,-0.14085999999999999,74.61,0.0,4.0
[K+].CCCCCCCC\C=C/CCCCCCCC(=O)N(C)CC([O-])=O,water,298,-0.121592004,mol/L,391.63700000000017,1.2362000000000004,60.440000000000005,0.0,3.0
CC(C)OC(C)=O,water,298,-0.546768091,mol/L,102.133,0.9579,26.3,0.0,2.0
CC(=O)OCC(=C)COC(C)=O,water,298,-0.77961667,mol/L,172.18,0.6688000000000001,52.6,0.0,4.0
Cc1ccccc1O[P](S)(=S)Oc2ccccc2C,water,298,-1.060529965,mol/L,310.38000000000005,4.915540000000004,18.46,1.0,3.0
CCCC(CCC)CCCC1COCCN1CCO,water,298,0.964258162,mol/L,271.44499999999994,3.0662000000000016,32.7,1.0,3.0
[Na+].CNCC[S]([O-])(=O)=O,water,298,0.19068814,mol/L,161.158,-4.244999999999997,69.22999999999999,1.0,4.0
[Na+].CCCCCCCCCCCCCCCO[S]([O-])(=O)=O,water,298,-0.121186775,mol/L,330.46599999999995,1.5583999999999996,66.43,0.0,4.0
[Al+3].[Cl-].[Cl-].[Cl-].[Cl-].[Cl-].[Cl-].[Cl-].[Ti+4],water,298,-0.111289404,mol/L,323.02000000000004,-21.3553,0.0,0.0,0.0
COC(=O)CCCCC(=O)OC,water,298,-0.84309817,mol/L,174.196,0.8927999999999998,52.60000000000001,0.0,4.0
[Na+].[Na+].Nc1c2C(=O)c3ccccc3C(=O)c2c(Nc4cccc(c4)[S](=O)(=O)CCO[S]([O-])(=O)=O)cc1[S]([O-])(=O)=O,water,298,-0.454535826,mol/L,626.5540000000003,-5.049599999999993,229.95999999999995,2.0,13.0
O[C@@H]1CO[C@@H]2[C@@H](O)CO[C@H]12,water,298,1.177450183,mol/L,146.142,-1.4942000000000004,58.92,2.0,4.0
COc1cc(ccc1NC(=O)c2ccc(cc2)N=Nc3c(O)nc(NC#N)nc3[O-])N=Nc4ccc5cc(cc(c5c4)[S]([O-])(=O)=O)[S]([O-])(=O)=O.OCC[NH+](CCO)CCO.OCC[NH+](CCO)CCO.OCC[NH+](CCO)CCO,water,298,-0.744942356,mol/L,1167.2440000000004,-5.253519999999999,502.45000000000016,15.0,27.0
NCc1ccc(CN)cc1,water,298,1.175071806,mol/L,136.198,0.6039999999999998,52.04,2.0,2.0
COC1COC2C(COC12)OC,water,298,1.059991817,mol/L,174.196,-0.18600000000000017,36.92,0.0,4.0
[Na+].[Na+].[O-][S](=O)(=O)c1cc2ccc(nc2c(c1)[S]([O-])(=O)=O)C3C(=O)c4ccccc4C3=O,water,298,-0.377836954,mol/L,477.3830000000002,-4.786199999999996,161.42999999999998,0.0,9.0
[NH4+].COc1cc(c(C)cc1NC(=O)CC(C)=O)[S]([O-])(=O)=O,water,298,-0.201876223,mol/L,318.351,1.2015199999999997,149.1,2.0,6.0
[Na+].[Na+].[Na+].[Na+].Oc1cc(O)c(cc1N=Nc2ccc(Nc3ccc(cc3[S]([O-])(=O)=O)[N+]([O-])=O)cc2)N=Nc4cc(cc5cc(c(N=Nc6ccc(Nc7ccc(cc7[S]([O-])(=O)=O)[N+]([O-])=O)cc6)c(O)c45)[S]([O-])(=O)=O)[S]([O-])(=O)=O,water,298,-0.76675145,mol/L,1168.9109999999998,-3.8612000000000006,473.98999999999995,5.0,27.0
[Na+].[Na+].[O-][S](=O)(=O)c1cccc(c1)N=Nc2ccc(N=Nc3ccc(Nc4ccccc4)c5c3cccc5[S]([O-])(=O)=O)c6ccccc26,water,298,-0.532539726,mol/L,681.6630000000002,2.383600000000003,175.86999999999998,1.0,11.0
CCCCCCCCCCCCN(CCCN)CCCN,water,298,-0.197711374,mol/L,299.547,3.906900000000001,55.28,2.0,3.0
COc1cc(ccc1NC(=O)c2ccc(cc2)N=Nc3c(O)nc(NC#N)nc3[O-])N=Nc4ccc5cc(cc(c5c4)[S]([O-])(=O)=O)[S]([O-])(=O)=O.OCC[NH+](CCO)CCO.OCC[NH+](CCO)CCO.OCC[NH+](CCO)CCO,water,298,-0.821648982,mol/L,1167.2440000000004,-5.253519999999999,502.45000000000016,15.0,27.0
[Na+].CC(C)CCCCCCCOC(=O)CC(C(=O)OCCCCCCCC(C)C)[S]([O-])(=O)=O,water,298,-0.469106118,mol/L,500.67400000000043,2.373900000000001,109.80000000000001,0.0,7.0
[H+].[Cl-].CC(C)(N=NC(C)(C)C(N)=N)C(N)=N,water,298,-0.145139333,mol/L,234.735,-2.0157599999999976,124.46000000000001,4.0,4.0
Nc1[nH]ncn1,water,298,1.216433057,mol/L,84.082,-0.6131000000000004,67.59,2.0,3.0
[Na+].CCCCCCCCCCCCO[S]([O-])(=O)=O,water,298,-0.346029315,mol/L,288.385,0.38809999999999967,66.43,0.0,4.0
[Sm+3].[O-][N+]([O-])=O.[O-][N+]([O-])=O.[O-][N+]([O-])=O,water,298,0.559539993,mol/L,336.3720000000001,-0.7173000000000003,198.6,0.0,9.0
[NH4+].[Cl-].[Cl-].[Cl-].[Cl-].[Au+3],water,298,0.522369686,mol/L,356.818,-11.6103,36.5,1.0,0.0
[Cl-].COC[P+](c1ccccc1)(c2ccccc2)c3ccccc3,water,298,0.506344271,mol/L,342.8060000000001,0.5884000000000025,9.23,0.0,1.0
[NH4+].[Cl-].[Cl-].[Cl-].[Cl-].[Au+3],water,298,0.488945931,mol/L,356.818,-11.6103,36.5,1.0,0.0
[NH4+].[Cl-].[Cl-].[Cl-].[Cl-].[Au+3],water,298,0.479365517,mol/L,356.818,-11.6103,36.5,1.0,0.0
[Ca++].[O-][PH]([O-])=O,water,298,0.948776933,mol/L,120.05699999999999,-2.2841,63.19,0.0,3.0
[Na+].[O-]C(=O)C=C,water,298,0.043697629,mol/L,94.04499999999999,-4.073699999999999,40.129999999999995,0.0,2.0
N.N.N.N.[Pd++].CC([O-])=O.CC([O-])=O,water,298,0.541425963,mol/L,292.632,-1.842099999999999,220.26,4.0,8.0
N.N.N.N.[Pd++].CC([O-])=O.CC([O-])=O,water,298,0.540571892,mol/L,292.632,-1.842099999999999,220.26,4.0,8.0
[OH-].[OH-].[OH-].[Cl-].[Cu++].[Cu++],water,298,-0.32521074,mol/L,213.566,-3.5314000000000005,90.0,0.0,3.0
N.N.N.N.[Pd++].CC([O-])=O.CC([O-])=O,water,298,0.537138717,mol/L,292.632,-1.842099999999999,220.26,4.0,8.0
CC(CO)(CO)C=O,water,298,0.928933376,mol/L,118.13199999999999,-0.8238000000000003,57.53,2.0,3.0
NCCNCCNCCN.NCCN(CCN)CCN,water,298,0.533909766,mol/L,292.47600000000006,-3.7525000000000004,157.4,7.0,8.0
NCCNCCNCCNCCN.NCCNCCN(CCN)CCN,water,298,0.421803331,mol/L,378.61400000000026,-4.573300000000009,181.46,9.0,10.0
CNCC(O)C(O)C(O)C(O)CO,water,298,0.709486815,mol/L,195.21499999999997,-3.3582999999999994,113.18,6.0,6.0
CN(C)CCCN,water,298,0.990629851,mol/L,102.18100000000001,-0.10320000000000007,29.259999999999998,1.0,2.0
[Cl-].CCN(CCC[NH+](C)C)C#N,water,298,0.717364294,mol/L,191.70600000000002,-3.672019999999997,31.47,1.0,2.0
CCC1(CO)COCOC1,water,298,0.835094217,mol/L,146.18599999999998,0.3794,38.69,1.0,3.0
CC(C)(C)CCCCCCCC(O)=O,water,298,-1.540552834,mol/L,200.32199999999997,3.847800000000002,37.3,1.0,1.0
CC(C)(C)CCCCCCCC(O)=O,water,298,-2.111396949,mol/L,200.32199999999997,3.847800000000002,37.3,1.0,1.0
CN1CCCN(C)C1=O,water,298,0.892196674,mol/L,128.175,0.3736999999999999,23.55,0.0,1.0
OCCOCCOCCCNc1ccc(NCCCOCCOCCO)c2C(=O)c3ccccc3C(=O)c12,water,298,0.275218022,mol/L,530.6180000000004,2.116999999999999,135.58,4.0,10.0
OCC1CN2CCN1CC2,water,298,0.847094295,mol/L,142.202,-1.0214999999999987,26.71,1.0,3.0
CN1CCN(C)CC1,water,298,0.942364321,mol/L,114.192,-0.13640000000000008,6.48,0.0,2.0
CCOCCOCCOC,water,298,0.829145936,mol/L,148.202,0.6859,27.69,0.0,3.0
CCN1CCCC1=O,water,298,0.946307061,mol/L,113.16,0.6287,20.310000000000002,0.0,1.0
OCCCOC(=O)C=C,water,298,0.885579186,mol/L,130.14299999999997,0.09799999999999986,46.53,1.0,3.0
Cn1ccnc1,water,298,1.085625105,mol/L,82.106,0.4200999999999999,17.82,0.0,2.0
CC(O)CN(CCCN(C)C)CCCN(C)C,water,298,0.610105975,mol/L,245.41099999999994,0.572600000000002,29.950000000000003,1.0,4.0
NCCOCCN,water,298,0.982328216,mol/L,104.153,-1.0795999999999994,61.269999999999996,2.0,3.0
COCCOCCOCCOCCOC,water,298,0.653097658,mol/L,222.28099999999995,0.32900000000000085,46.150000000000006,0.0,5.0
COCCOCCOCCOC,water,298,0.749024066,mol/L,178.22799999999998,0.3124,36.92,0.0,4.0
CC1CNCC(C)O1,water,298,0.938638008,mol/L,115.17599999999999,0.38320000000000004,21.259999999999998,1.0,2.0
CN(C)CCOC(=O)C=C,water,298,0.844099443,mol/L,143.18599999999998,0.2771999999999999,29.54,0.0,3.0
OC(=O)CCl,water,298,1.024581979,mol/L,94.49700000000001,0.3098,37.3,1.0,1.0
NCCO.OC(=O)CS,water,298,0.81473273,mol/L,153.203,-1.0617999999999999,83.55000000000001,4.0,4.0
CC(CCC(O)=O)C(O)=O,water,298,0.835224954,mol/L,146.142,0.5719,74.6,2.0,2.0
OC(=O)CC(=O)C(O)=O,water,298,0.879192534,mol/L,132.071,-0.8851999999999998,91.66999999999999,2.0,3.0