Solute,Solvent,Temperature_K,Solubility,Units,MW,LogP,TPSA,HBD,HBA
[Cl-].CCCCCCCCCCCCCC[N+](C)(C)Cc1ccccc1,water,298,-0.922452966,mol/L,368.04900000000004,3.9681000000000015,0.0,0.0,0.0
[Na+].[Na+].[Fe].Nc1ccc(cc1)[N+]([O-])=O.Nc2cc(cc(c2O)[N+]([O-])=O)[N+]([O-])=O.OC/3=CC(=O)C=CC3=N/Nc4cc(cc5cc(cc(O)c45)[S]([O-])(=O)=O)[S]([O-])(=O)=O,water,298,-1.307546525,mol/L,877.4680000000003,-3.324399999999993,398.00999999999993,6.0,20.0
[Na+].[Na+].[Na+].[Na+].[Na+].[Na+].[Na+].[Na+].Oc1c(Nc2nc(Cl)nc(Nc3ccc(Nc4nc(Cl)nc(Nc5c(O)c6c(cc(cc6N=Nc7ccc8c(cccc8[S]([O-])(=O)=O)c7[S]([O-])(=O)=O)[S]([O-])(=O)=O)cc5[S]([O-])(=O)=O)n4)cc3)n2)c(cc9cc(cc(N=Nc%10ccc%11c(cccc%11[S]([O-])(=O)=O)c%10[S]([O-])(=O)=O)c19)[S]([O-])(=O)=O)[S]([O-])(=O)=O,water,298,-0.634868411,mol/L,1774.2140000000004,-17.54259999999995,672.9600000000002,6.0,40.0
[Cl-].CCCCCCCCCCCCCC[N+](C)(C)Cc1ccccc1,water,298,-0.953121785,mol/L,368.04900000000004,3.9681000000000015,0.0,0.0,0.0
[F-].[F-].[Ni++],water,298,-0.383317077,mol/L,96.689,-5.9945,0.0,0.0,0.0
OC(=O)c1cc(Br)nn1c2ncccc2Cl,water,298,-1.784390525,mol/L,302.515,2.3814,68.00999999999999,1.0,4.0
OC(=O)c1cc(Br)nn1c2ncccc2Cl,water,298,1.215434674,mol/L,302.515,2.3814,68.00999999999999,1.0,4.0
NC(=O)NC1NC(=O)NC1=O,water,298,-1.508782486,mol/L,158.117,-2.1798,113.32,4.0,3.0
Oc1ccc(Cl)cc1Cl,water,298,-1.521999518,mol/L,163.003,2.699,20.23,1.0,1.0
[Na+].[Na+].[O-][S](=O)(=O)c1ccc(cc1)N=Nc2ccc(N\N=C\3C(=O)c4ccc(NC(=O)c5ccccc5)cc4C=C3[S]([O-])(=O)=O)cc2,water,298,-2.156676448,mol/L,675.6120000000003,-1.1830999999999932,209.67999999999998,2.0,12.0
[Na+].[O-][S](=O)(=O)C1=CC(=O)C2=C(NNc3ccccc3[S](=O)(=O)c4ccccc4)C(=N)C=CC2=C1,water,298,-2.088831676,mol/L,505.5090000000002,-0.7782299999999964,156.32,3.0,9.0
OC[P+](CO)(CO)CO.OC[P+](CO)(CO)CO.[O-][S]([O-])(=O)=O,water,298,1.9675127,mol/L,406.28300000000013,-3.731599999999998,242.1,8.0,12.0
CCCCCCCCCCCCCC[N+](C)(C)C.CCCCCCCCCCCCCC[N+](C)(C)C.[O-]C(=O)C([O-])=O,water,298,-0.201967633,mol/L,601.0140000000006,7.273600000000007,80.25999999999999,0.0,4.0
O=C1CCO1,water,298,0.710489386,mol/L,72.063,-0.06669999999999998,26.3,0.0,2.0
[K+].CC(C)CCOC([S-])=S,water,298,0.237889723,mol/L,202.385,-1.1151,9.23,0.0,3.0
CCC(=O)N(C1CC[NH2+]CC1)c2ccccc2,water,298,-0.835225508,mol/L,233.33499999999998,1.1554,36.92,1.0,1.0
[Na+].[O-][S](=O)(=O)CCN1CCOCC1,water,298,0.188529745,mol/L,217.22199999999992,-4.1321999999999965,69.67,0.0,5.0
CCCCCCCC(=O)OCC(O)CO,water,298,0.179474131,mol/L,218.29299999999998,1.2433,66.76,2.0,4.0
[Na+].[Na+].[Na+].[Co+3].CC(=O)\C(=N/Nc1cc(cc(c1[O-])[S]([O-])(=O)=O)[N+]([O-])=O)C(=O)[N-]c2ccccc2.CC(=O)\C(=N/Nc3cc(cc(c3[O-])[S]([O-])(=O)=O)[N+]([O-])=O)C(=O)[N-]c4ccccc4,water,298,-0.474704027,mol/L,966.6050000000001,-6.667700000000012,392.05999999999995,2.0,20.0
[Na+].[Na+].Nc1c(N=Nc2ccc(cc2)[N+]([O-])=O)c(cc3C=C(\C(=N/Nc4ccccc4)C(=O)c13)[S]([O-])(=O)=O)[S]([O-])(=O)=O,water,298,-1.2800595,mol/L,616.5010000000003,-2.944999999999994,249.73999999999998,2.0,14.0
[Li+].[O-]C(=O)c1ccccc1,water,298,0.390910622,mol/L,128.05599999999995,-2.945899999999998,40.129999999999995,0.0,2.0
[Na+].[Na+].[Na+].[O-][S](=O)(=O)c1cc2C=CC(=O)\C(=N/Nc3ccc(c4ccccc34)[S]([O-])(=O)=O)c2c(c1)[S]([O-])(=O)=O,water,298,-0.296785333,mol/L,604.4830000000003,-8.023800000000016,213.05999999999997,1.0,12.0
C1CCOCOC1,water,298,0.467955166,mol/L,102.133,0.7709,18.46,0.0,2.0
CN(C)C(=O)NC[C@@]1(C)C[C@@H](CC(C)(C)C1)NC(=O)N(C)C,water,298,-1.893818753,mol/L,312.458,2.1138,64.68,2.0,2.0
[Na+].[Na+].Nc1ccc2C(=O)C(=N/Nc3ccc4C(=O)C(=N/Nc5ccccc5)\C(=Cc4c3)[S]([O-])(=O)=O)/C(=Cc2c1)[S]([O-])(=O)=O,water,298,-2.210130555,mol/L,637.5630000000002,-3.6221999999999923,223.33999999999997,3.0,13.0
CCc1cccc(C)c1N,water,298,-1.574706312,mol/L,135.20999999999995,2.13962,26.02,1.0,1.0
NC(=O)C[NH+](CC([O-])=O)CC([O-])=O,water,298,-1.763581857,mol/L,189.14699999999996,-6.1435999999999975,127.78999999999999,2.0,5.0
COC(=O)c1ccc(O)cc1,water,298,-1.690907409,mol/L,152.149,1.1788,46.53,1.0,3.0
[Ca++].NC#N,water,298,-0.446096322,mol/L,82.119,-0.95462,49.81,1.0,2.0
OC(=O)CCSCCC(O)=O,water,298,-0.799143198,mol/L,178.209,0.669,74.6,2.0,3.0
CCCCN[P](N)(N)=S,water,298,-0.773033917,mol/L,167.218,0.518,64.07,3.0,1.0
[F].[F].[F].[Cr],water,298,-0.590228621,mol/L,108.99000000000001,1.2581000000000002,0.0,0.0,0.0
[Na+].[Na+].[Na+].Cc1ccccc1Nc2nc(Cl)nc(Nc3cc(cc4C=C(/C(=N/Nc5ccccc5[S]([O-])(=O)=O)C(=O)c34)[S]([O-])(=O)=O)[S]([O-])(=O)=O)n2,water,298,-0.457240368,mol/L,788.0850000000003,-6.308680000000002,275.78999999999996,3.0,17.0
[H+].[Cl-].NN,water,298,1.595628815,mol/L,68.507,-4.0647,52.04,2.0,2.0
[Na+].Oc1ccc2ccccc2c1N=Nc3ccc(cc3)[S]([O-])(=O)=O,water,298,-1.115857896,mol/L,350.3310000000001,0.8689,102.15,1.0,6.0
[Na+].[Na+].[Na+].[Na+].[Cu++].[Cu++].[O-]c1cc(ccc1N=Nc2c([O-])c(cc3cc(ccc23)[S]([O-])(=O)=O)[S]([O-])(=O)=O)c4ccc(N=Nc5c([O-])c(cc6cc(ccc56)[S]([O-])(=O)=O)[S]([O-])(=O)=O)c([O-])c4,water,298,-1.607428748,mol/L,1057.7960000000003,-9.587400000000018,370.47999999999996,0.0,20.0
[Na+].[Na+].[Fe].Nc1ccc(cc1)[N+]([O-])=O.Nc2cc(cc(c2O)[N+]([O-])=O)[N+]([O-])=O.OC/3=CC(=O)C=CC3=N/Nc4cc(cc5cc(cc(O)c45)[S]([O-])(=O)=O)[S]([O-])(=O)=O,water,298,-1.540626045,mol/L,877.4680000000003,-3.324399999999993,398.00999999999993,6.0,20.0
CO[S]([O-])(=O)=O.CC(C)N(C(C)C)c1sc(N=Nc2ccc(cc2)N(C)C)[n+](C)n1,water,298,-1.259698438,mol/L,458.6100000000002,3.1652000000000013,114.39999999999999,0.0,10.0
[Na+].[Na+].[O-][S](=O)(=O)c1cccc2c(cccc12)N=Nc3ccc(N=Nc4ccc(Nc5ccccc5)c6c4cccc6[S]([O-])(=O)=O)c7ccccc37,water,298,-1.463118539,mol/L,731.7230000000002,3.536800000000004,175.86999999999998,1.0,11.0
[Li+].CC1=NN(C(=N)/C1=N/Nc2cc(Cl)c(cc2Cl)[S]([O-])(=O)=O)c3ccccc3,water,298,-1.237068525,mol/L,432.21800000000013,0.5427700000000006,121.03999999999999,2.0,7.0
CC(C)CC1CC(C)(O)CCO1,water,298,2.13768162,mol/L,172.26799999999994,1.9625,29.46,1.0,2.0
Cc1ccc(O)cc1,water,298,-0.666630444,mol/L,108.13999999999999,1.7006199999999998,20.23,1.0,1.0
[Na+].[Na+].Cc1ccc(cc1)[S](=O)(=O)Oc2ccc(cc2)N=Nc3ccc(N=Nc4ccc(Nc5ccc(cc5[S]([O-])(=O)=O)[N+]([O-])=O)cc4)c6ccc(cc36)[S]([O-])(=O)=O,water,298,-1.570984747,mol/L,846.7890000000002,2.2147200000000034,262.38,1.0,16.0
Cc1cc(C)c(N)c(C)c1N,water,298,-0.820716356,mol/L,150.225,1.77626,52.04,2.0,2.0
[Na+].[Na+].Nc1ccc(N=Nc2ccc(N\N=C\3C(=O)c4c(N)c(N=Nc5ccc(cc5)N=Nc6ccc(N)cc6N)c(cc4C=C3[S]([O-])(=O)=O)[S]([O-])(=O)=O)cc2)c(N)c1,water,298,-1.568718144,mol/L,839.7880000000001,0.30640000000000434,360.12,6.0,20.0
NO,water,298,-0.168466717,mol/L,33.03,-0.6657000000000002,46.25,2.0,2.0
CC1(C)CC(=O)CC(C)(C)N1[O],water,298,0.10341255,mol/L,170.232,1.554,40.21,0.0,2.0
[Na+].[Na+].Nc1ccc(N=Nc2ccc(cc2)[S](=O)(=O)Nc3ccc(cc3)N=Nc4c(N)c5c(O)c(N=Nc6ccccc6)c(cc5cc4[S]([O-])(=O)=O)[S]([O-])(=O)=O)c(N)c1,water,298,-0.602981194,mol/L,860.8240000000002,1.1552000000000036,333.02,5.0,18.0
[Na+].[Na+].[O-]C([O-])=O,water,298,0.302102237,mol/L,105.98799999999999,-8.439,63.19,0.0,3.0
Cc1ccc(O)cc1,water,298,-0.701547905,mol/L,108.13999999999999,1.7006199999999998,20.23,1.0,1.0
[Na+].Nc1c(cc(NC2CCCCC2)c3C(=O)c4ccccc4C(=O)c13)[S]([O-])(=O)=O,water,298,-1.296365099,mol/L,422.4380000000001,-0.30309999999999926,129.39,2.0,7.0
[Na+].[Na+].[Na+].[Na+].Nc1ccc(cc1[S]([O-])(=O)=O)N=Nc2ccc(N=Nc3ccc(N\N=C/4C(=O)c5ccc(NC(=O)c6ccccc6)cc5C=C4[S]([O-])(=O)=O)c7ccc(cc37)[S]([O-])(=O)=O)c8ccc(cc28)[S]([O-])(=O)=O,water,298,-1.725427794,mol/L,1098.9510000000002,-5.062900000000014,374.82,3.0,21.0
NC1=NC(=O)N(C=C1)C2OC(CO[P](O)(O)=O)C(O)C2O,water,298,-1.198775352,mol/L,323.198,-2.446,177.35999999999999,5.0,9.0
CCNC(=S)OC(C)C,water,298,-1.696742946,mol/L,147.243,1.3058,21.259999999999998,1.0,2.0
[Na+].[O-][N+](=O)c1ccc(Nc2ccc(Nc3ccccc3)c(c2)[S]([O-])(=O)=O)c(c1)[N+]([O-])=O,water,298,-2.199137363,mol/L,452.38000000000017,0.8982999999999998,167.54,2.0,9.0
COC(=O)c1ccccc1N,water,298,-1.733847045,mol/L,151.16499999999996,1.0554,52.32,1.0,3.0
[Na+].Nc1c(cc(Nc2ccccc2)c3C(=O)c4ccccc4C(=O)c13)[S]([O-])(=O)=O,water,298,-2.173896088,mol/L,416.39000000000016,-0.30409999999999915,129.39,2.0,7.0
[Na+].CC1=NN(C(=O)C1N=Nc2cc(Cl)ccc2Oc3ccccc3Cl)c4cc(ccc4Cl)[S]([O-])(=O)=O,water,298,-2.316221585,mol/L,575.7930000000003,3.2222000000000017,123.82,0.0,8.0
NC1=Nc2[nH]cc(CCc3ccc(cc3)C(O)=O)c2C(=O)N1,water,298,-2.049774529,mol/L,298.302,1.3168,124.85999999999999,4.0,4.0
CCNC(=S)OC(C)C,water,298,-1.744788784,mol/L,147.243,1.3058,21.259999999999998,1.0,2.0
NC(=O)C[NH+](CC([O-])=O)CC([O-])=O,water,298,-1.855195531,mol/L,189.14699999999996,-6.1435999999999975,127.78999999999999,2.0,5.0
CCNC(=S)OC(C)C,water,298,-1.754734893,mol/L,147.243,1.3058,21.259999999999998,1.0,2.0
CCOC(=O)c1ccc(O)c(O)c1,water,298,-1.855655062,mol/L,182.17499999999998,1.2744999999999997,66.76,2.0,4.0
COC(=O)c1ccc(O)cc1,water,298,-1.784329094,mol/L,152.149,1.1788,46.53,1.0,3.0
OC(=O)c1cc(cc(c1)C(O)=O)C(O)=O,water,298,-1.942299553,mol/L,210.14099999999996,0.7811999999999999,111.9,3.0,3.0
COc1ccc(CCC#N)cc1OC,water,298,-1.901344783,mol/L,191.23,2.15998,42.25,0.0,3.0
[Na+].CC1=NN(C(=O)C1N=Nc2cccc(c2)[S](=O)(=O)NCCc3ccccc3)c4cc(Cl)c(cc4Cl)[S]([O-])(=O)=O,water,298,-2.429980995,mol/L,632.4830000000003,1.2975000000000017,160.76,1.0,9.0
[Na+].[Na+].Cc1ccc(cc1)[S](=O)(=O)Nc2cc(cc3C=C(C(=N/Nc4ccc(Oc5ccccc5C)cc4Oc6ccccc6C)\C(=O)c23)[S]([O-])(=O)=O)[S]([O-])(=O)=O,water,298,-2.566969077,mol/L,833.8300000000003,0.4598600000000064,220.48999999999998,2.0,13.0
[Na+].[Na+].[Na+].[Na+].COc1cc(N=Nc2cc(cc3cc(cc(O)c23)[S]([O-])(=O)=O)[S]([O-])(=O)=O)c(C)cc1NC(=O)Nc4cc(C)c(cc4OC)N=Nc5cc(cc6cc(cc(O)c56)[S]([O-])(=O)=O)[S]([O-])(=O)=O,water,298,-2.690313687,mol/L,1048.884,-5.854560000000009,378.28999999999996,4.0,21.0
O=C1NC(=O)C2CCCC12,water,298,0.155357382,mol/L,139.154,0.059099999999999486,46.17,1.0,2.0
[Na+].[O-][S](=O)(=O)CCNC1CCCCC1,water,298,-0.078418557,mol/L,229.27699999999993,-2.542099999999997,69.22999999999999,1.0,4.0
[Na+].[Na+].[O-][S]([O-])(=O)=O,water,298,0.126333765,mol/L,142.04299999999998,-7.329999999999999,80.25999999999999,0.0,4.0
C[C@]12CC[C@H]3[C@@H](CCC4=C3CCC(=O)C4)[C@@H]1CC[C@@H]2O,water,298,-4.947028744,mol/L,274.40399999999994,3.6332000000000026,37.3,1.0,2.0
OCC(CO)(CBr)CBr,water,298,-1.130401751,mol/L,261.941,0.7471999999999999,40.46,2.0,2.0
[Na+].[Na+].[Na+].[Na+].[Na+].[Na+].Nc1c(N=Nc2cc(Nc3nc(Cl)nc(Nc4cccc(c4)[S](=O)(=O)CCO[S]([O-])(=O)=O)n3)ccc2[S]([O-])(=O)=O)c(cc5cc(c(N=Nc6ccc7c(cccc7[S]([O-])(=O)=O)c6[S]([O-])(=O)=O)c(O)c15)[S]([O-])(=O)=O)[S]([O-])(=O)=O,water,298,-0.855658376,mol/L,1357.501,-14.767800000000001,544.99,4.0,32.0
[Na+].[Na+].[Na+].[Na+].[Na+].[Na+].[O-]C(=O)c1ccc[n+](c1)c2nc(NCCNc3ccc4N=C5C(=C6Oc7c(ccc(NCCNc8nc(Nc9cc(ccc9[S]([O-])(=O)=O)[S]([O-])(=O)=O)nc(n8)[n+]%10cccc(c%10)C([O-])=O)c7[S]([O-])(=O)=O)N=C6C(=C5Oc4c3[S]([O-])(=O)=O)Cl)Cl)nc(Nc%11cc(ccc%11[S]([O-])(=O)=O)[S]([O-])(=O)=O)n2,water,298,-0.952204802,mol/L,1666.1640000000002,-19.25839999999993,623.9200000000001,6.0,38.0
[Na+].Nc1ccc(N\N=C\2C=Cc3c(cccc3[S]([O-])(=O)=O)C2=O)cc1,water,298,-1.291560039,mol/L,365.3460000000001,-1.1454999999999982,124.67999999999998,2.0,7.0
C/C=C(\C)/C(=O)OC1C(C2(C(CC1(C)C)C3=CCC4C5(CCC(C(C5CCC4(C3(CC2O)C)C)(C)CO)OC6C(C(C(C(O6)C(=O)O)OC7C(C(C(C(O7)CO)O)O)O)O)OC8C(C(C(C(O8)CO)O)O)O)C)CO)OC(=O)C,water,298,-1.103103668,mol/L,1131.269000000001,-1.321099999999987,388.0400000000001,13.0,23.0
[Cl-].[Cl-].[Sn++],water,298,-0.027457269,mol/L,189.61700000000002,-6.3728,0.0,0.0,0.0
[H+].[Cl-].CC(C)(N=NC(C)(C)C(N)=N)C(N)=N,water,298,-0.124571946,mol/L,234.735,-2.0157599999999976,124.46000000000001,4.0,4.0
[K+].OP(O)O,water,298,1.152409408,mol/L,121.09299999999999,-3.8058,60.69,3.0,3.0
[Na+].[Na+].[Cu].COc1ccc(cc1N)[S]([O-])(=O)=O.Nc2ccc(c(N)c2)[N+]([O-])=O.Oc3cccc([O-])c3,water,298,-1.504350196,mol/L,573.9820000000003,-4.587999999999995,230.91999999999996,4.0,11.0
[Na+].[Na+].[Na+].[Na+].COc1ccc(N\N=C\2C(=O)c3ccc(Nc4nc(Nc5ccc6C(=O)C(=N/Nc7ccc(OC)cc7[S]([O-])(=O)=O)/C(=Cc6c5)[S]([O-])(=O)=O)nc(n4)N8CCOCC8)cc3C=C2[S]([O-])(=O)=O)c(c1)[S]([O-])(=O)=O,water,298,-1.825282751,mol/L,1156.9879999999998,-9.862200000000035,405.37999999999994,4.0,27.0
[Na+].[Na+].[Na+].[O-]C(=O)C1=NN(c2ccc(cc2)[S]([O-])(=O)=O)C(=O)C1N=Nc3ccc(cc3)[S]([O-])(=O)=O,water,298,-0.504996401,mol/L,534.3710000000002,-9.88820000000001,211.91999999999996,0.0,12.0
CC(N)C(O)=O,water,298,0.267898616,mol/L,89.09399999999998,-0.5817999999999999,63.32,2.0,2.0
OC(=O)C1CCCN1,water,298,1.148318966,mol/L,115.13200000000002,-0.177,49.33,2.0,2.0
[Na+].[Na+].[O-][S]([O-])(=O)=O,water,298,0.057095178,mol/L,142.04299999999998,-7.329999999999999,80.25999999999999,0.0,4.0
[Na+].[Na+].[O-][S]([O-])(=O)=O,water,298,0.05440604,mol/L,142.04299999999998,-7.329999999999999,80.25999999999999,0.0,4.0
[Na+].[Na+].Cc1ccc(cc1)[S](=O)(=O)Nc2cc(cc3C=C(C(=N/Nc4cc(Cl)ccc4Oc5ccccc5)\C(=O)c23)[S]([O-])(=O)=O)[S]([O-])(=O)=O,water,298,-0.667930686,mol/L,748.1240000000004,-1.2958799999999928,211.26,2.0,12.0
[H+].[Cl-].CC(C)(C)N(CC(=O)c1ccc(O)c(CO)c1)Cc2ccccc2,water,298,-1.348776549,mol/L,363.8850000000001,0.4844000000000003,60.77000000000001,2.0,4.0
[Cl-].CN(N=CC1=[N+](C)c2ccccc2C1(C)C)c3ccc(C)cc3,water,298,-1.329218805,mol/L,341.8860000000001,1.1272200000000017,18.61,0.0,2.0
ON=C1CCCCC1,water,298,-0.849572956,mol/L,113.16000000000001,1.7807,32.59,1.0,2.0
[Na+].[Na+].[Na+].[Na+].[Na+].[Na+].Nc1c(N=Nc2cc(Nc3nc(Cl)nc(Nc4cccc(c4)[S]([O-])(=O)=O)n3)ccc2[S]([O-])(=O)=O)c(cc5C=C(/C(=N/Nc6cc(Nc7nc(Cl)nc(Nc8cccc(c8)[S]([O-])(=O)=O)n7)ccc6[S]([O-])(=O)=O)C(=O)c15)[S]([O-])(=O)=O)[S]([O-])(=O)=O,water,298,-0.957205517,mol/L,1418.9579999999999,-14.569599999999994,560.86,6.0,34.0
OC(=O)C1CCCN1,water,298,1.129135649,mol/L,115.13200000000002,-0.177,49.33,2.0,2.0
[Ca++].[O-]P=O.[O-]P=O,water,298,-0.032644921,mol/L,166.022,-1.274,80.25999999999999,0.0,4.0
[NH4+].[Fe+3].[O-]C(=O)CN(CCCN(CC([O-])=O)CC([O-])=O)CC([O-])=O,water,298,0.105005622,mol/L,376.12300000000016,-6.6461999999999986,203.49999999999997,1.0,10.0
ON=C1CCCCC1,water,298,-0.87760168,mol/L,113.16000000000001,1.7807,32.59,1.0,2.0
[Na+].[Na+].COc1nc(Nc2ccccc2)nc(Nc3ccc(\C=C\c4ccc(Nc5nc(Nc6ccccc6)nc(OC)n5)cc4[S]([O-])(=O)=O)c(c3)[S]([O-])(=O)=O)n1,water,298,-1.761510148,mol/L,814.7740000000001,-0.9651999999999943,258.32,4.0,18.0
[Na+].Cc1ccc(N[S](=O)(=O)c2cc(NNC3=C4C(=O)C=C(C=C4C=CC3=N)[S]([O-])(=O)=O)ccc2Cl)c(C)c1,water,298,-0.630871318,mol/L,583.0230000000003,0.460010000000001,168.35,4.0,9.0
[Na+].Cc1cc(ccc1N\N=C2\C(=O)C=Cc3ccccc23)[S]([O-])(=O)=O,water,298,-0.43660043,mol/L,364.3580000000001,-0.6847800000000002,98.66,1.0,6.0
Oc1ccc(cc1)[S](O)(=O)=O,water,298,0.878924604,mol/L,174.177,0.6389000000000001,74.6,2.0,3.0
Cc1cccc(c1C)[S](O)(=O)=O,water,298,0.849861103,mol/L,186.232,1.5501399999999999,54.37,1.0,2.0
[Na+].[Na+].CC(=O)Nc1cc(cc2C=C(\C(=N/Nc3ccccc3)C(=O)c12)[S]([O-])(=O)=O)[S]([O-])(=O)=O,water,298,-0.586608448,mol/L,509.42900000000026,-4.892399999999993,184.95999999999998,2.0,10.0
CN(C)C1CCCCC1,water,298,-0.977488142,mol/L,127.23100000000001,1.8806999999999998,3.24,0.0,1.0
[Li+].[Li+].[O-]C([O-])=O,water,298,-0.754642314,mol/L,73.89,-8.439,63.19,0.0,3.0
[Na+].[Na+].CC(=O)Nc1ccc2C=C(\C(=N/Nc3ccc(cc3)[S](=O)(=O)CCO[S]([O-])(=O)=O)C(=O)c2c1)[S]([O-])(=O)=O,water,298,-0.679407503,mol/L,617.5470000000004,-5.545999999999991,228.32999999999998,2.0,13.0
[Na+].CCN(CC)c1ccc(cc1)[C+](c2ccc(cc2)N(CC)Cc3cccc(c3)[S]([O-])(=O)=O)c4ccc(cc4)N(CC)Cc5cccc(c5)[S]([O-])(=O)=O,water,298,-0.77170269,mol/L,761.9420000000001,4.417190000000005,124.12,0.0,9.0
NCCCCCCNC(O)=O,water,298,-0.095298805,mol/L,160.217,0.7731000000000001,75.35,3.0,2.0
CCCCCCCO,water,298,-1.853033473,mol/L,116.204,1.9491,20.23,1.0,1.0
[Li].O[S](=O)(=O)C(F)(F)F,water,298,0.903040198,mol/L,157.01799999999997,0.013200000000000045,54.37,1.0,2.0
NC(N)=N.O[N+]([O-])=O,water,298,0.010251263,mol/L,122.08399999999999,-1.5091299999999999,139.26000000000002,4.0,3.0
[Li].O[S](=O)(=O)C(F)(F)F,water,298,0.900612997,mol/L,157.01799999999997,0.013200000000000045,54.37,1.0,2.0
[Li].O[S](=O)(=O)C(F)(F)F,water,298,0.899568601,mol/L,157.01799999999997,0.013200000000000045,54.37,1.0,2.0
CCOCCOCCOC(=O)C=C,water,298,-0.181251006,mol/L,188.22299999999998,0.7686999999999999,44.760000000000005,0.0,4.0
[Li].O[S](=O)(=O)C(F)(F)F,water,298,0.894661267,mol/L,157.01799999999997,0.013200000000000045,54.37,1.0,2.0
N#CCCC#N,water,298,0.175240889,mol/L,80.09,0.81376,47.58,0.0,2.0
[Na+].[Na+].Cc1cc(ccc1NNC2=C(C=C3C=CC(=O)C=C3C2=O)[S]([O-])(=O)=O)C4(CCCCC4)c5ccc(NNC6=C(C=C7C=CC(=O)C=C7C6=O)[S]([O-])(=O)=O)c(C)c5,water,298,-0.854788461,mol/L,840.8440000000003,-1.942959999999988,230.79999999999995,4.0,14.0
[Ca++].[O-]P=O.[O-]P=O,water,298,-0.151608746,mol/L,166.022,-1.274,80.25999999999999,0.0,4.0
Cc1cccc(c1C)[S](O)(=O)=O,water,298,0.792903527,mol/L,186.232,1.5501399999999999,54.37,1.0,2.0
Cc1ccc(cc1)[S](O)(=O)=O,water,298,0.826160052,mol/L,172.20499999999998,1.24172,54.37,1.0,2.0
Cc1cccc(c1C)[S](O)(=O)=O,water,298,0.792151502,mol/L,186.232,1.5501399999999999,54.37,1.0,2.0
O[S](=O)(=O)c1ccccc1,water,298,0.848907093,mol/L,158.178,0.9333000000000001,54.37,1.0,2.0
Cc1cccc(c1C)[S](O)(=O)=O,water,298,0.777998866,mol/L,186.232,1.5501399999999999,54.37,1.0,2.0
[Na+].Nc1cc(cc2cc(cc(O)c12)[S]([O-])(=O)=O)[S](O)(=O)=O,water,298,-1.476228892,mol/L,341.29800000000006,-2.7175999999999987,157.82,3.0,7.0
OC(=O)C(O)=O,water,298,0.07901721,mol/L,90.03399999999999,-0.8443999999999998,74.6,2.0,2.0
[K].OC(=O)C(O)=O.OC(=O)C(O)=O,water,298,-0.307349426,mol/L,219.16599999999997,-2.0696,149.2,4.0,4.0
[Li+].[O-][N+]([O-])=O,water,298,1.170097396,mol/L,68.94500000000001,-3.2350999999999996,66.19999999999999,0.0,3.0
CCCCNCCO,water,298,0.931102034,mol/L,117.19199999999998,0.3683999999999999,32.26,2.0,2.0
CNCCO,water,298,1.124296456,mol/L,75.11099999999999,-0.8019000000000001,32.26,2.0,2.0
NCCO,water,298,1.214072532,mol/L,61.083999999999996,-1.0626000000000002,46.25,2.0,2.0
CN(C)C=O,water,298,1.13611233,mol/L,73.095,-0.2956000000000001,20.310000000000002,0.0,1.0
[OH-].[Cr+3].[O-][S]([O-])(=O)=O,water,298,0.782342373,mol/L,165.06599999999997,-1.5172999999999999,110.25999999999999,0.0,5.0
[Na+].S,water,298,1.243569299,mol/L,57.073,-2.8832,0.0,0.0,0.0
[F].[F].[F].[Cr],water,298,-0.037386653,mol/L,108.99000000000001,1.2581000000000002,0.0,0.0,0.0
OC(=O)c1cc(Br)nn1c2ncccc2Cl,water,298,1.550984626,mol/L,302.515,2.3814,68.00999999999999,1.0,4.0
ClCCOCCCl,water,298,-1.130069652,mol/L,143.013,1.4806,9.23,0.0,1.0
[Na+].Cc1ccc(Nc2ccc(O)c3C(=O)c4ccccc4C(=O)c23)c(c1)[S]([O-])(=O)=O,water,298,-1.634881148,mol/L,431.4010000000002,0.12772000000000017,123.6,2.0,7.0
c1ccccc1,water,298,-1.618571028,mol/L,78.11399999999999,1.6866,0.0,0.0,0.0
COC(=O)c1ccc(O)cc1,water,298,-1.926996597,mol/L,152.149,1.1788,46.53,1.0,3.0
[Na+].CCN(CC)[S](=O)(=O)c1ccc(OC)c(N\N=C\2C=C(c3ccccc3C2=O)[S]([O-])(=O)=O)c1,water,298,-2.466753911,mol/L,515.5450000000002,-0.7197999999999978,145.26999999999998,1.0,9.0
CCOC(=O)N(CC)c1ccccc1,water,298,0.867399476,mol/L,193.24600000000004,2.6694000000000013,29.54,0.0,2.0
CCCC[Sn++]CCCC.CCCCC(CC)C([O-])=O.CCCCC(CC)C([O-])=O,water,298,-2.569336281,mol/L,519.3550000000005,5.032800000000004,80.25999999999999,0.0,4.0
Oc1ccc(cc1)[S](=O)(=O)c2ccc(O)cc2,water,298,-2.357024785,mol/L,250.275,1.9306,74.6,2.0,4.0
OC(=O)c1cc(Br)nn1c2ncccc2Cl,water,298,-2.467909689,mol/L,302.515,2.3814,68.00999999999999,1.0,4.0
OC(=O)c1cc(Br)nn1c2ncccc2Cl,water,298,0.531668461,mol/L,302.515,2.3814,68.00999999999999,1.0,4.0
OC[C@H]1O[C@@H](Oc2cc(O)cc(O)c2C(=O)CCc3ccc(O)cc3)[C@H](O)[C@@H](O)[C@@H]1O,water,298,-2.639897679,mol/L,436.41300000000007,-0.20240000000000025,177.14,7.0,10.0
Cc1c(N)cccc1Cl,water,298,-2.15106632,mol/L,141.60099999999997,2.23062,26.02,1.0,1.0
CC(C)c1ccc(C)cc1O,water,298,-2.176730649,mol/L,150.22099999999998,2.824020000000002,20.23,1.0,1.0
CC(=O)OCCc1ccccc1,water,298,-2.231757445,mol/L,164.204,1.7922,26.3,0.0,2.0
OC(=O)CCCCC1CCSS1,water,298,-2.375047335,mol/L,206.332,2.7851000000000017,37.3,1.0,3.0
Cc1ccccc1OCC2CO2,water,298,-2.291104446,mol/L,164.20399999999998,1.7726199999999999,21.759999999999998,0.0,2.0
CCCCCCCCCCCCCC[N+](C)(C)C.CCCCCCCCCCCCCC[N+](C)(C)C.[O-]C(=O)C([O-])=O,water,298,-2.898070996,mol/L,601.0140000000006,7.273600000000007,80.25999999999999,0.0,4.0