Solute,Solvent,Temperature_K,Solubility,Units,MW,LogP,TPSA,HBD,HBA
CCCCNc1ccc(NCCCC)c2C(=O)c3ccccc3C(=O)c12,water,298,-7.931857078,mol/L,350.462,4.886000000000004,58.199999999999996,2.0,4.0
CC(C)CCC[C@@H](C)CCC[C@@H](C)CCC/C(C)=C/CO,water,298,-4.861741107,mol/L,296.539,6.364100000000008,20.23,1.0,1.0
Cc1cc(n2nc3ccc(Cl)cc3n2)c(O)c(c1)C(C)(C)C,water,298,-7.897357635,mol/L,315.8040000000001,4.3854200000000025,50.94,1.0,4.0
CCCCCCCCCCCCCCCCCCCN,water,298,-5.85712424,mol/L,283.5439999999999,6.5967000000000064,26.02,1.0,1.0
O[Co]=O,water,298,-5.369992186,mol/L,91.939,-0.6783,37.3,1.0,1.0
CCCCCCCC(=O)CC(=O)c1ccccc1,water,298,-5.803841602,mol/L,246.35,4.189000000000004,34.14,0.0,2.0
[Co++].[O-]C([O-])=O,water,298,-4.491747447,mol/L,118.94099999999999,-2.4495000000000005,63.19,0.0,3.0
[Co++].[O-]C([O-])=O,water,298,-4.491792766,mol/L,118.94099999999999,-2.4495000000000005,63.19,0.0,3.0
[Co++].[O-]C([O-])=O,water,298,-5.491113473,mol/L,118.94099999999999,-2.4495000000000005,63.19,0.0,3.0
O=[Co],water,298,-6.28808002,mol/L,74.932,-0.1213,17.07,0.0,1.0
S=[P](Oc1ccccc1)(Oc2ccccc2)Oc3ccccc3,water,298,-6.954694347,mol/L,342.35600000000005,5.447900000000003,27.69,0.0,4.0
[Co++].CCCCC(CC)C([O-])=O.CCCCC(CC)C([O-])=O,water,298,-5.959613963,mol/L,345.34500000000014,1.9028999999999998,80.25999999999999,0.0,4.0
[Co++].[O-]C([O-])=O,water,298,-4.497839786,mol/L,118.94099999999999,-2.4495000000000005,63.19,0.0,3.0
[O-][N+](=O)c1ncn(CC(=O)Nc2cc(ccc2Cl)C(F)(F)F)n1,water,298,-5.968106767,mol/L,349.656,2.4972000000000003,102.95,1.0,6.0
[Co++].[O-]C([O-])=O,water,298,-5.503506337,mol/L,118.94099999999999,-2.4495000000000005,63.19,0.0,3.0
[S--].[Co++],water,298,-4.389749433,mol/L,91.0,-0.0049,0.0,0.0,0.0
[O--].[O--].[O--].[Sb+3].[Sb+3],water,298,-5.896462162,mol/L,291.517,-1.118,85.5,0.0,0.0
[Al+3].[Cl-].[Cl-].[Cl-],water,298,-6.568661207,mol/L,133.341,-9.3688,0.0,0.0,0.0
[Co],water,298,-4.218299015,mol/L,58.933,-0.0025,0.0,0.0,0.0
[Co],water,298,-5.225422784,mol/L,58.933,-0.0025,0.0,0.0,0.0
[Co],water,298,-4.22691137,mol/L,58.933,-0.0025,0.0,0.0,0.0
[Co++].[O-]C([O-])=O,water,298,-4.536129986,mol/L,118.94099999999999,-2.4495000000000005,63.19,0.0,3.0
[S--].[Co++],water,298,-4.43543798,mol/L,91.0,-0.0049,0.0,0.0,0.0
[Co++].[O-]C([O-])=O,water,298,-4.556370421,mol/L,118.94099999999999,-2.4495000000000005,63.19,0.0,3.0
[Co++].[O-]C([O-])=O,water,298,-4.556423012,mol/L,118.94099999999999,-2.4495000000000005,63.19,0.0,3.0
CC(C)(c1cc(Br)c(O)c(Br)c1)c2cc(Br)c(O)c(Br)c2.ClCC3CO3,water,298,-7.273530473,mol/L,636.3999999999999,7.097700000000006,52.99,2.0,3.0
CC(C)(C)CCCCC1(OO1)C(=O)OC(C)(C)CC(C)(C)C,water,298,-6.971234419,mol/L,314.46600000000007,5.009000000000005,51.36,0.0,4.0
O=[Co],water,298,-3.35846259,mol/L,74.932,-0.1213,17.07,0.0,1.0
[Co++].[O-]C([O-])=O,water,298,-5.56639806,mol/L,118.94099999999999,-2.4495000000000005,63.19,0.0,3.0
Clc1ccc2Nc3cc4C(=O)c5ccccc5Nc4cc3C(=O)c2c1Cl,water,298,-7.066625646,mol/L,381.2180000000002,4.982800000000002,65.72,2.0,2.0
[Ba++].[O-][S](=O)(=O)c1c(N\N=C\2C(=O)C=Cc3ccccc23)ccc4ccccc14.[O-][S](=O)(=O)c5c(N\N=C\6C(=O)C=Cc7ccccc67)ccc8ccccc58,water,298,-7.438544783,mol/L,892.13,5.931200000000005,197.32,2.0,12.0
[O-][N+](=O)c1cc(Cl)c(N=Nc2ccc(cc2)N(CCC#N)CCC#N)c(Cl)c1,water,298,-7.115252612,mol/L,417.2560000000003,5.950760000000003,118.67999999999998,0.0,7.0
[Co++].[O-]C(=O)C([O-])=O,water,298,-4.667787925,mol/L,146.951,-3.5163,80.25999999999999,0.0,4.0
[Co++].[O-]C(=O)C([O-])=O,water,298,-4.681011371,mol/L,146.951,-3.5163,80.25999999999999,0.0,4.0
[Co++].[O-]C([O-])=O,water,298,-5.589042825,mol/L,118.94099999999999,-2.4495000000000005,63.19,0.0,3.0
CCCCC(CC)C(=O)OOC(C)(C)CC(C)(C)C,water,298,-5.94953191,mol/L,272.429,4.892400000000005,35.53,0.0,3.0
[Co],water,298,-5.288915921,mol/L,58.933,-0.0025,0.0,0.0,0.0
CC(C)CCC[C@@H](C)[C@H]1CC[C@H]2[C@@H]3CC=C4C[C@@H](O)CC[C@]4(C)[C@H]3CC[C@]12C,water,298,-7.100195364,mol/L,386.6640000000002,7.388700000000009,20.23,1.0,1.0
FC(F)(F)C(F)(F)C(F)(F)C(F)(F)C(F)(F)C(F)(F)CCI,water,298,-7.188638134,mol/L,473.99800000000005,5.550300000000001,0.0,0.0,0.0
O[Co]=O,water,298,-6.4763614,mol/L,91.939,-0.6783,37.3,1.0,1.0
O=[Co],water,298,-6.387528949,mol/L,74.932,-0.1213,17.07,0.0,1.0
CC(C)CCC[C@@H](C)[C@H]1CC[C@H]2[C@@H]3CC=C4C[C@@H](O)CC[C@]4(C)[C@H]3CC[C@]12C,water,298,-7.104460156,mol/L,386.6640000000002,7.388700000000009,20.23,1.0,1.0
CC(C)C(C)(C)C(C)(C)C(C)(C)S,water,298,-7.711832978,mol/L,202.40699999999998,4.403200000000004,0.0,1.0,1.0
COc1ccc(cc1N\N=C2/C(=O)C(=Cc3ccccc23)C(=O)Nc4cc(Cl)ccc4OC)C(=O)Nc5ccccc5,water,298,-8.184413465,mol/L,581.0280000000002,6.030500000000004,118.12,3.0,7.0
Nc1c(OCCOC(=O)Oc2ccccc2)cc(O)c3C(=O)c4ccccc4C(=O)c13,water,298,-8.054415311,mol/L,419.38900000000024,3.3442000000000025,125.15,2.0,8.0
[O--].[O--].[O--].[O--].[O--].[Al+3].[Al+3].[Co++].[Co++],water,298,-7.844796342,mol/L,251.825,-1.3605999999999998,142.5,0.0,0.0
CCCCCCCCCCCCCCCCCCCCCC(=O)OCC(CO)(CO)COC(=O)CCCCCCCCCCCCCCCCCCCCC,water,298,-8.348750336,mol/L,781.3009999999991,14.687599999999966,93.06,2.0,6.0
Cc1ccc(cc1)N2N=C(C)C(N=Nc3ccc(cc3Cl)c4ccc(N=NC5C(=NN(c6ccc(C)cc6)C5=O)C)c(Cl)c4)C2=O,water,298,-8.269885037,mol/L,651.5580000000001,9.027240000000003,114.77999999999997,0.0,8.0
O=C1c2ccccc2c3ccc4Sc5ccccc5c6ccc1c3c46,water,298,-7.982807307,mol/L,336.41500000000013,6.312100000000003,17.07,0.0,2.0
O=[Co],water,298,-7.33059928,mol/L,74.932,-0.1213,17.07,0.0,1.0
CC(=O)OCCOc1ccc(cc1)C(C)(C)c2ccc(OCCOC(C)=O)cc2,water,298,-8.058503028,mol/L,400.47100000000023,3.8963000000000028,71.06,0.0,6.0
CN[S](=O)(=O)c1cc(OC)c(N\N=C2/C(=O)C(=Cc3ccccc23)C(=O)Nc4ccc5NC(=O)Nc5c4)cc1C,water,298,-8.217167979,mol/L,560.5920000000001,2.50232,174.60999999999999,5.0,8.0
BrC1CC(Br)CC(Br)CC(Br)CC(Br)CC(Br)C1,water,298,-8.275853122,mol/L,641.6999999999999,6.921600000000004,0.0,0.0,0.0
O=[Ti]=O,water,298,-7.370877579,mol/L,79.865,-0.2401,34.14,0.0,2.0
[O-][N+](=O)c1ccc(N\N=C2/C(=O)C=Cc3ccccc23)c(Cl)c1,water,298,-7.996998283,mol/L,327.7270000000001,3.660300000000002,84.6,1.0,5.0
Cc1ccc(N\N=C2/C(=O)C=Cc3ccccc23)c(c1)[N+]([O-])=O,water,298,-7.96906134,mol/L,307.3090000000001,3.3153200000000016,84.6,1.0,5.0
CCCCOC(=O)c1ccccc1N\N=C2/C(=O)C(=Cc3ccccc23)C(=O)Nc4ccc5NC(=O)Nc5c4,water,298,-8.213807356,mol/L,523.5490000000002,4.2341000000000015,145.50999999999996,4.0,7.0
O=[Cr]O[Cr]=O,water,298,-7.68626782,mol/L,151.989,-0.311,43.370000000000005,0.0,3.0
CC(C)CCCCCCCCCCCCCCC(=O)OCC(COC(=O)CCCCCCCCCCCCCCC(C)C)OC(=O)CCCCCCCCCCCCCCC(C)C,water,298,-8.458760141,mol/L,891.5009999999992,18.33679999999998,78.9,0.0,6.0
CCCCC(CC)COC(=O)c1ccc(C(=O)OCC(CC)CCCC)c(c1)C(=O)OCC(CC)CCCC,water,298,-8.252098343,mol/L,546.7890000000003,8.806200000000006,78.90000000000002,0.0,6.0
COc1ccccc1NC(=O)C2=Cc3ccccc3C(=N/Nc4ccc(cc4)C(N)=O)/C2=O,water,298,-8.166784234,mol/L,440.4590000000002,3.2150999999999996,122.88,3.0,6.0
[Ba++].Cc1cc(N\N=C\2C(=O)C=Cc3ccccc23)c(cc1Cl)[S]([O-])(=O)=O.Cc4cc(N\N=C\5C(=O)C=Cc6ccccc56)c(cc4Cl)[S]([O-])(=O)=O,water,298,-5.473789485,mol/L,888.954,5.548440000000005,197.32,2.0,12.0
[Co++].[O-]C(=O)C([O-])=O,water,298,-4.692475618,mol/L,146.951,-3.5163,80.25999999999999,0.0,4.0
[Co],water,298,-4.300242196,mol/L,58.933,-0.0025,0.0,0.0,0.0
[Co++].[O-]C(=O)C([O-])=O,water,298,-4.710260192,mol/L,146.951,-3.5163,80.25999999999999,0.0,4.0
O=[Sn],water,298,-8.828369841,mol/L,134.71,-0.49960000000000004,17.07,0.0,1.0
[Co++].[O-]C(=O)C([O-])=O,water,298,-3.714281064,mol/L,146.951,-3.5163,80.25999999999999,0.0,4.0
[Co++].[O-]C(=O)C([O-])=O,water,298,-5.716615536,mol/L,146.951,-3.5163,80.25999999999999,0.0,4.0
[Co++].[O-]C(=O)C([O-])=O,water,298,-3.719392988,mol/L,146.951,-3.5163,80.25999999999999,0.0,4.0
[Co++].[O-]C(=O)C([O-])=O,water,298,-5.725948872,mol/L,146.951,-3.5163,80.25999999999999,0.0,4.0
CCCCC(CC)C(=O)OOC(C)(C)CCC(C)(C)OOC(=O)C(CC)CCCC,water,298,-7.188496045,mol/L,430.62600000000026,6.706200000000008,71.06,0.0,6.0
Cc1cc(O)c(cc1Sc2cc(c(O)cc2C)C(C)(C)C)C(C)(C)C,water,298,-7.112066324,mol/L,358.54700000000014,6.460840000000005,40.46,2.0,3.0
[Al+3].[Cl-].[Cl-].[Cl-],water,298,-6.693599944,mol/L,133.341,-9.3688,0.0,0.0,0.0
[Co],water,298,-4.341576038,mol/L,58.933,-0.0025,0.0,0.0,0.0
[Co++].[O-]C(=O)C([O-])=O,water,298,-5.738066538,mol/L,146.951,-3.5163,80.25999999999999,0.0,4.0
[Co++].[O-]C([O-])=O,water,298,-5.648332627,mol/L,118.94099999999999,-2.4495000000000005,63.19,0.0,3.0
[Co++].[O-]C(=O)C([O-])=O,water,298,-3.745780883,mol/L,146.951,-3.5163,80.25999999999999,0.0,4.0
[Co++].[O-]C(=O)C([O-])=O,water,298,-5.747547185,mol/L,146.951,-3.5163,80.25999999999999,0.0,4.0
[Co++].CCCCC(CC)C([O-])=O.CCCCC(CC)C([O-])=O,water,298,-6.121446301,mol/L,345.34500000000014,1.9028999999999998,80.25999999999999,0.0,4.0
CC(C)(c1cc(Br)c(OCC2CO2)c(Br)c1)c3cc(Br)c(OCC4CO4)c(Br)c3,water,298,-7.395301899,mol/L,656.003,6.617700000000005,43.519999999999996,0.0,4.0
[Ag+].CCCCCCCCCCCCCCCCCCCCCC([O-])=O,water,298,-7.235773106,mol/L,447.4520000000004,6.555700000000006,40.129999999999995,0.0,2.0
[Ca++].Cc1cc(c(N\N=C\2C(=O)C(=Cc3ccccc23)C([O-])=O)cc1Cl)[S]([O-])(=O)=O,water,298,-6.263770478,mol/L,458.89200000000017,0.7039199999999999,138.79,1.0,8.0
Nc1ccc(c2ccc(N)c3C(=O)c4ccccc4C(=O)c23)c5C(=O)c6ccccc6C(=O)c15,water,298,-7.249878993,mol/L,444.44600000000025,4.068800000000002,120.32,2.0,6.0
[Co],water,298,-4.382079686,mol/L,58.933,-0.0025,0.0,0.0,0.0
[Ca++].[O-]C(=O)C1=Cc2ccccc2/C(=N/Nc3ccc4ccccc4c3[S]([O-])(=O)=O)C1=O,water,298,-6.279395406,mol/L,460.48000000000025,0.8952999999999993,138.79,1.0,8.0
[Co],water,298,-4.387621284,mol/L,58.933,-0.0025,0.0,0.0,0.0
CC(=O)Nc1ccc(NC(=O)C2=Cc3ccccc3C(=N/Nc4cc(ccc4Cl)C(N)=O)/C2=O)cc1,water,298,-7.304443807,mol/L,501.9300000000002,3.8183000000000016,142.75,4.0,6.0
CCOC(=O)C(=C)C#N,water,298,-6.717139791,mol/L,125.127,0.6292800000000001,50.09,0.0,3.0
[Co++].[O-]C([O-])=O,water,298,-5.706115728,mol/L,118.94099999999999,-2.4495000000000005,63.19,0.0,3.0
[Zn++].CCCCCCC(O)CCCCCCCCCCC([O-])=O.CCCCCCC(O)CCCCCCCCCCC([O-])=O,water,298,-5.454848129,mol/L,664.34,7.93470000000001,120.72,2.0,6.0
O=[Co],water,298,-5.514452711,mol/L,74.932,-0.1213,17.07,0.0,1.0
[Na+].C[O-].COC(=O)c1c(Cl)c(Cl)c(Cl)c(Cl)c1C#N.Nc2ccc(N)cc2,water,298,-6.30586781,mol/L,461.10800000000023,0.7899799999999995,125.19,2.0,6.0
[Co++].[O-]C(=O)C([O-])=O,water,298,-3.808993953,mol/L,146.951,-3.5163,80.25999999999999,0.0,4.0
Nc1ccc(c2ccc(N)c3C(=O)c4ccccc4C(=O)c23)c5C(=O)c6ccccc6C(=O)c15,water,298,-6.293710563,mol/L,444.44600000000025,4.068800000000002,120.32,2.0,6.0
[Co++].[O-]C(=O)C([O-])=O,water,298,-5.814797051,mol/L,146.951,-3.5163,80.25999999999999,0.0,4.0
[Co++].[O-]C([O-])=O,water,298,-3.727767407,mol/L,118.94099999999999,-2.4495000000000005,63.19,0.0,3.0
[Co++].[O-]C([O-])=O,water,298,-6.723149067,mol/L,118.94099999999999,-2.4495000000000005,63.19,0.0,3.0
[Co],water,298,-4.42813332,mol/L,58.933,-0.0025,0.0,0.0,0.0
CC(C)(C)c1ccc(OC2CCCCC2O[S](=O)OCC#C)cc1,water,298,-6.21222478,mol/L,350.4800000000001,3.9192000000000036,44.760000000000005,0.0,4.0
[Co++].[O-]C([O-])=O,water,298,-3.744208098,mol/L,118.94099999999999,-2.4495000000000005,63.19,0.0,3.0
[Co++].[O-]C([O-])=O,water,298,-3.744218228,mol/L,118.94099999999999,-2.4495000000000005,63.19,0.0,3.0
O=[Co],water,298,-4.544659624,mol/L,74.932,-0.1213,17.07,0.0,1.0
CCCCC(CC)COC(=O)OOC(C)(C)CC,water,298,-6.088238681,mol/L,260.37399999999997,4.476200000000004,44.760000000000005,0.0,4.0
[Co++].[O-]C(=O)C([O-])=O,water,298,-4.844746493,mol/L,146.951,-3.5163,80.25999999999999,0.0,4.0
CCOC(F)(C(F)(F)C(F)(F)C(F)(F)F)C(F)(C(F)(F)F)C(F)(F)F,water,298,-7.288734017,mol/L,414.10799999999995,5.354500000000002,9.23,0.0,1.0
[Co],water,298,-4.449174522,mol/L,58.933,-0.0025,0.0,0.0,0.0
[Co++].[O-]C([O-])=O,water,298,-3.754354908,mol/L,118.94099999999999,-2.4495000000000005,63.19,0.0,3.0
[Co++].[O-]C([O-])=O,water,298,-3.754359056,mol/L,118.94099999999999,-2.4495000000000005,63.19,0.0,3.0
[Co],water,298,-5.456491329,mol/L,58.933,-0.0025,0.0,0.0,0.0
[Sr++].Cc1cc(N\N=C\2C(=O)C=Cc3ccccc23)c(cc1Cl)[S]([O-])(=O)=O.Cc4cc(N\N=C\5C(=O)C=Cc6ccccc56)c(cc4Cl)[S]([O-])(=O)=O,water,298,-7.622859284,mol/L,839.2460000000001,5.548440000000005,197.32,2.0,12.0
O=[Cr]O[Cr]=O,water,298,-7.710520447,mol/L,151.989,-0.311,43.370000000000005,0.0,3.0
O=C1NC(=O)C(C(=O)N1)=C2NC(c3ccccc23)=C4C(=O)NC(=O)NC4=O,water,298,-8.102595735,mol/L,367.2770000000001,-2.7986999999999984,166.32999999999998,5.0,6.0
CCCCCCCCCCCCCCCCCCOC(=O)CCc1cc(c(O)c(c1)C(C)(C)C)C(C)(C)C,water,298,-8.270149868,mol/L,530.8780000000003,10.724499999999992,46.53,1.0,3.0
CC(=O)C(N=Nc1cc(Cl)c(cc1Cl)c2cc(Cl)c(cc2Cl)N=NC(C(C)=O)C(=O)Nc3ccc(C)cc3C)C(=O)Nc4ccc(C)cc4C,water,298,-8.462687047,mol/L,754.502,10.560879999999996,141.77999999999997,2.0,8.0
COc1ccccc1NC(=O)C(N=Nc2ccc(cc2Cl)c3ccc(N=NC(C(C)=O)C(=O)Nc4ccccc4OC)c(Cl)c3)C(C)=O,water,298,-8.423596194,mol/L,689.5560000000002,8.037600000000007,160.23999999999998,2.0,10.0
O[S](=O)(=O)c1ccccc1N=C2C=CC(C=C2)=C(c3ccc(Nc4ccccc4)cc3)c5ccc(Nc6ccccc6)cc5,water,298,-8.377105088,mol/L,595.7240000000003,9.1211,90.78999999999999,3.0,5.0
Nc1c(Oc2ccccc2)c(Oc3ccccc3)c(N)c4C(=O)c5ccccc5C(=O)c14,water,298,-8.238375208,mol/L,422.4400000000002,5.211000000000004,104.63999999999999,2.0,6.0
[F-].[F-].[F-].[Nd+3],water,298,-7.916311534,mol/L,201.234,-8.988,0.0,0.0,0.0
COCCOCCCN1C(=O)c2c(N)c3C(=O)c4ccccc4C(=O)c3c(N)c2C1=O,water,298,-8.26504866,mol/L,423.4250000000002,0.4816,143.71,2.0,9.0
Nc1c(Oc2ccccc2)c(Oc3ccccc3)c(N)c4C(=O)c5ccccc5C(=O)c14,water,298,-8.271656595,mol/L,422.4400000000002,5.211000000000004,104.63999999999999,2.0,6.0
CCOC(=O)C1=NN(C(=O)C1N=Nc2ccc(cc2Cl)c3ccc(N=NC4C(=O)N(N=C4C(=O)OCC)c5ccccc5)c(Cl)c3)c6ccccc6,water,298,-8.526560129,mol/L,739.5760000000002,7.496800000000007,167.37999999999997,0.0,12.0
[Se],water,298,-6.575187845,mol/L,78.96,-0.3808,0.0,0.0,0.0
O[Co]=O,water,298,-7.641280481,mol/L,91.939,-0.6783,37.3,1.0,1.0
Nc1c(Oc2ccccc2)c(Oc3ccccc3)c(N)c4C(=O)c5ccccc5C(=O)c14,water,298,-8.307701699,mol/L,422.4400000000002,5.211000000000004,104.63999999999999,2.0,6.0
COc1cc(NC(=O)C(N=Nc2ccc(cc2Cl)c3ccc(N=NC(C(C)=O)C(=O)Nc4ccc(C)cc4C)c(Cl)c3)C(C)=O)c(OC)cc1Cl.COc5cc(NC(=O)C(N=Nc6ccc(cc6Cl)c7ccc(N=NC(C(C)=O)C(=O)Nc8cc(OC)c(Cl)cc8OC)c(Cl)c7)C(C)=O)c(OC)cc5Cl.CC(=O)C(N=Nc9ccc(cc9Cl)c%10ccc(N=NC(C(C)=O)C(=O)Nc%11ccc(C)cc%11C)c(Cl)c%10)C(=O)Nc%12ccc(C)cc%12C,water,298,-9.052340862,mol/L,2256.164999999997,27.923520000000096,480.71999999999997,6.0,30.0
CC(C)CCCCCCCOC(=O)C(C)=C,water,298,-6.055946609,mol/L,226.35999999999996,4.102300000000003,26.3,0.0,2.0
[Co++].[O-]C([O-])=O,water,298,-3.793809628,mol/L,118.94099999999999,-2.4495000000000005,63.19,0.0,3.0
[Co++].[O-]C([O-])=O,water,298,-3.793820984,mol/L,118.94099999999999,-2.4495000000000005,63.19,0.0,3.0
O=[Ti]=O,water,298,-2.602054554,mol/L,79.865,-0.2401,34.14,0.0,2.0
[Fe],water,298,-6.459182565,mol/L,55.845,-0.0025,0.0,0.0,0.0
COc1ccccc1NC(=O)C(N=Nc2ccc(Cl)cc2[N+]([O-])=O)C(C)=O,water,298,-7.306378354,mol/L,390.78300000000013,3.9368000000000025,123.25999999999999,1.0,7.0
[S--].[Co++],water,298,-6.678008025,mol/L,91.0,-0.0049,0.0,0.0,0.0
[Cd]=[Te],water,298,-7.101479355,mol/L,240.012,-0.38330000000000003,0.0,0.0,0.0
[Ba++].CCc1cc(N\N=C/2C(=O)C=Cc3ccccc23)c(cc1Cl)[S]([O-])(=O)=O.CCc4cc(N\N=C/5C(=O)C=Cc6ccccc56)c(cc4Cl)[S]([O-])(=O)=O,water,298,-5.69286018,mol/L,917.0079999999999,6.056400000000005,197.32,2.0,12.0
O=[Co],water,298,-3.605586555,mol/L,74.932,-0.1213,17.07,0.0,1.0
[Fe],water,298,-4.482166472,mol/L,55.845,-0.0025,0.0,0.0,0.0
FC(F)(F)c1ccc(Cl)c(N\N=C2/C(=O)C(=Cc3ccccc23)C(=O)Nc4cc(Cl)c(NC(=O)C5=Cc6ccccc6C(=N/Nc7cc(ccc7Cl)C(F)(F)F)\C5=O)cc4Cl)c1,water,298,-7.692243372,mol/L,930.476,11.179799999999991,141.12,4.0,8.0
Cc1cccc(Cc2ccccc2)c1Cc3ccccc3,water,298,-7.179920249,mol/L,272.391,5.176620000000004,0.0,0.0,0.0
[Co++].CCCCC(CC)C([O-])=O.CCCCC(CC)C([O-])=O,water,298,-7.282980667,mol/L,345.34500000000014,1.9028999999999998,80.25999999999999,0.0,4.0
[Co++].[O-]C([O-])=O,water,298,-4.837536592,mol/L,118.94099999999999,-2.4495000000000005,63.19,0.0,3.0
CC(=O)C(N=Nc1ccccc1C(O)=O)C(=O)Nc2ccc3NC(=O)Nc3c2,water,298,-7.330901471,mol/L,381.34800000000007,2.2344,156.83999999999997,4.0,6.0
[S--].[Co++],water,298,-6.711068126,mol/L,91.0,-0.0049,0.0,0.0,0.0
CC(=O)C(N=Nc1ccccc1OCCOc2ccccc2N=NC(C(C)=O)C(=O)Nc3ccc4NC(=O)Nc4c3)C(=O)Nc5ccc6NC(=O)Nc6c5,water,298,-7.634485568,mol/L,732.7139999999999,4.843600000000002,257.53999999999996,6.0,12.0
Clc1ccc(Cl)c(N\N=C2/C(=O)C(=Cc3ccccc23)C(=O)Nc4ccc5NC(=O)Nc5c4)c1,water,298,-7.461800322,mol/L,492.3220000000002,4.584000000000003,119.20999999999998,4.0,5.0
[Ca++].CC(=O)C(N=Nc1ccc(cc1[N+]([O-])=O)[S]([O-])(=O)=O)C(=O)Nc2ccccc2Cl,water,298,-5.451460763,mol/L,479.8910000000002,2.4515000000000002,171.23,1.0,9.0
[Fe],water,298,-5.519097591,mol/L,55.845,-0.0025,0.0,0.0,0.0
[Ba++].[O-][S](=O)(=O)c1c(N\N=C\2C(=O)C=Cc3ccccc23)ccc4ccccc14.[O-][S](=O)(=O)c5c(N\N=C\6C(=O)C=Cc7ccccc67)ccc8ccccc58,water,298,-5.726958163,mol/L,892.13,5.931200000000005,197.32,2.0,12.0
[Co],water,298,-4.551036041,mol/L,58.933,-0.0025,0.0,0.0,0.0
C1CCCCCCCCCCC1,water,298,-7.02202606,mol/L,168.32399999999998,4.681200000000004,0.0,0.0,0.0
CCCCCCOC(=O)c1ccccc1C(=O)c2ccc(cc2O)N(CC)CC,water,298,-7.395233539,mol/L,397.5150000000002,5.2065000000000055,66.84,1.0,5.0
CC(C)CCCCCCCOC(=O)C(C)=C,water,298,-6.164467987,mol/L,226.35999999999996,4.102300000000003,26.3,0.0,2.0
[B],water,298,-4.843574339,mol/L,10.812,-0.3808,0.0,0.0,0.0
[Co++].CCCCC(CC)C([O-])=O.CCCCC(CC)C([O-])=O,water,298,-5.347977516,mol/L,345.34500000000014,1.9028999999999998,80.25999999999999,0.0,4.0
CCCCOC(=O)C1C(C(=O)OCCCC)C2(Cl)C(=C(Cl)C1(Cl)C2(Cl)Cl)Cl,water,298,-7.509558903,mol/L,501.06100000000004,5.750900000000004,52.60000000000001,0.0,4.0
O=C1N2c3cccc4cccc(N=C2c5ccccc15)c34,water,298,-7.255740326,mol/L,270.291,3.8919000000000024,32.67,0.0,2.0
[Co],water,298,-4.606601026,mol/L,58.933,-0.0025,0.0,0.0,0.0
[Co++].CCCCC(CC)C([O-])=O.CCCCC(CC)C([O-])=O,water,298,-5.375569307,mol/L,345.34500000000014,1.9028999999999998,80.25999999999999,0.0,4.0
[Co++].CCCCC(CC)C([O-])=O.CCCCC(CC)C([O-])=O,water,298,-6.379589192,mol/L,345.34500000000014,1.9028999999999998,80.25999999999999,0.0,4.0
[Co++].CCCCC(CC)C([O-])=O.CCCCC(CC)C([O-])=O,water,298,-4.382911061,mol/L,345.34500000000014,1.9028999999999998,80.25999999999999,0.0,4.0
[Co],water,298,-4.615934576,mol/L,58.933,-0.0025,0.0,0.0,0.0
[Co++].CCCCC(CC)C([O-])=O.CCCCC(CC)C([O-])=O,water,298,-6.387189919,mol/L,345.34500000000014,1.9028999999999998,80.25999999999999,0.0,4.0
[Co++].CCCCC(CC)C([O-])=O.CCCCC(CC)C([O-])=O,water,298,-5.390545939,mol/L,345.34500000000014,1.9028999999999998,80.25999999999999,0.0,4.0
[Cd]=[Te],water,298,-7.205591763,mol/L,240.012,-0.38330000000000003,0.0,0.0,0.0
Clc1ccc2Nc3cc4C(=O)c5cc(Cl)ccc5Nc4cc3C(=O)c2c1,water,298,-7.419805396,mol/L,381.21800000000013,4.982800000000002,65.72,2.0,2.0
CC(=O)C(N=Nc1ccccc1C(F)(F)F)C(=O)Nc2ccc3NC(=O)Nc3c2,water,298,-7.455526833,mol/L,405.33600000000007,3.5550000000000006,119.53999999999999,3.0,5.0
Cc1ccc(cc1N\N=C2\C(=O)C(=Cc3ccccc23)C(=O)Nc4cc(C)c(NC(=O)C5=Cc6ccccc6C(=N/Nc7c(C)cccc7C(=O)OCCCl)/C5=O)cc4C)C(=O)OCCCl,water,298,-7.814241029,mol/L,925.8259999999998,8.553480000000006,193.71999999999997,4.0,12.0
CC(=O)C(N=Nc1ccc(Cl)cc1[N+]([O-])=O)C(=O)Nc2ccc3NC(=O)Nc3c2,water,298,-7.473779877,mol/L,416.78100000000006,3.0977999999999994,162.67999999999998,3.0,7.0
O=[Co],water,298,-6.728539289,mol/L,74.932,-0.1213,17.07,0.0,1.0
CC(=C)C(=O)OCCCCCCCCCCOC(=O)C(C)=C,water,298,-6.350206051,mol/L,310.434,4.345800000000004,52.6,0.0,4.0
[S--].[Co++],water,298,-5.820738694,mol/L,91.0,-0.0049,0.0,0.0,0.0
[S--].[Co++],water,298,-5.823908741,mol/L,91.0,-0.0049,0.0,0.0,0.0
[Co++].CCCCC(CC)C([O-])=O.CCCCC(CC)C([O-])=O,water,298,-6.409530888,mol/L,345.34500000000014,1.9028999999999998,80.25999999999999,0.0,4.0
Clc1cccc2C(=O)c3cc4Nc5c(Cl)cccc5C(=O)c4cc3Nc12,water,298,-6.457321758,mol/L,381.21800000000013,4.982800000000002,65.72,2.0,2.0
[Co],water,298,-5.656415197,mol/L,58.933,-0.0025,0.0,0.0,0.0
CCOC(F)(C(F)(F)C(F)(F)C(F)(F)F)C(F)(C(F)(F)F)C(F)(F)F,water,298,-7.49326198,mol/L,414.10799999999995,5.354500000000002,9.23,0.0,1.0