Solute,Solvent,Temperature_K,Solubility,Units,MW,LogP,TPSA,HBD,HBA
CCCCCCCCCCCCCCCCCCCCCCCCCCCCCC.CCCCCCCCCCCC(CC)CCCCCCC(CC)CCCCCCC.CCC1CCC(CC)CC1.Cc2cccc(C)c2.C3CCC4CC5CCCCC5CC4C3.c6ccc7ccccc7c6.c8ccc9cc%10ccccc%10cc9c8,water,298,-5.405053261,mol/L,1590.843999999999,40.751839999999945,0.0,0.0,0.0
CCCCCCCCCCCCCCCCCCCCCCC.CCCCCCCCCCCC(CCC)(CCC)CCCCCCCC.CCc1ccc2cc3cc(CC)ccc3cc2c1,water,298,-5.169894523,mol/L,925.6969999999994,24.580600000000036,0.0,0.0,0.0
CCCCCCCCCCCCCCCCCCCC.CCCCCCCC(CC)CCCC(CC)CCCC.c1ccc2cc3ccccc3cc2c1,water,298,-5.074616676,mol/L,743.3460000000002,19.800799999999988,0.0,0.0,0.0
CCCCCCCCCCCCCC.CCc1ccccc1.c2ccccc2.c3ccc4ccccc4c3.c5ccc6cc7ccccc7cc6c5,water,298,-5.041697833,mol/L,689.0840000000001,16.475799999999964,0.0,0.0,0.0
c1ccc2ccccc2c1,water,298,-4.311225605,mol/L,128.17399999999995,2.839800000000001,0.0,0.0,0.0
O=[Te]=O,water,298,-1.406869568,mol/L,159.59799999999998,-0.6184000000000001,34.14,0.0,2.0
Oc1ccccc1C(=O)OC2CCCCC2,water,298,-4.554076293,mol/L,220.26799999999992,2.8817000000000013,46.53,1.0,3.0
CC(=C)[C@@H]1CCC(=CC1)C,water,298,-4.346837785,mol/L,136.238,3.308900000000002,0.0,0.0,0.0
CC\C=C/CCOC(=O)C\C=C/CC,water,298,-4.509709484,mol/L,196.29,3.242200000000002,26.3,0.0,2.0
CC[C@]12CC[C@H]3[C@@H](CCC4=C3CC=C(C4)OC)[C@@H]1CC[C@@H]2O,water,298,-4.702513826,mol/L,302.458,4.594400000000005,29.46,1.0,2.0
CCCCCCCCCCCC(=O)OCC(O)CO,water,298,-4.660234439,mol/L,274.40099999999995,2.8037000000000014,66.76,2.0,4.0
COc1ccc(c(O)c1)C(=O)c2ccccc2,water,298,-4.580253828,mol/L,228.24699999999999,2.6318,46.53,1.0,3.0
CCCCC(CC)COC(=O)CS[Sn](C)(SCC(=O)OCC(CC)CCCC)SCC(=O)OCC(CC)CCCC,water,298,-5.093262298,mol/L,743.7269999999997,9.033500000000005,78.90000000000002,0.0,9.0
CC1CCC2C(C)(C)C3CC12CC(=C3C)C(C)=O,water,298,-4.613478878,mol/L,246.39399999999992,4.3742000000000045,17.07,0.0,1.0
[CaH2].O=[Zr],water,298,-4.395958005,mol/L,149.317,-1.0375,17.07,0.0,1.0
CC\C=C/CCOC(=O)C\C=C/CC,water,298,-4.514746925,mol/L,196.29,3.242200000000002,26.3,0.0,2.0
CCOC(=O)c1ccccc1,water,298,-2.39990224,mol/L,150.177,1.8633,26.3,0.0,2.0
OC(=O)CCc1ccccc1,water,298,-1.405751413,mol/L,150.177,1.7038,37.3,1.0,1.0
CCCCCCO,water,298,-1.238501136,mol/L,102.17699999999999,1.559,20.23,1.0,1.0
CC(C)=CCC\C(C)=C\C=O,water,298,-2.411668206,mol/L,152.237,2.878000000000001,17.07,0.0,1.0
[O-][N+](=O)c1ccccc1Cl,water,298,-2.426582935,mol/L,157.55599999999998,2.2482000000000006,43.14,0.0,2.0
CCCCCCC1CCCC1=O,water,298,-3.451515538,mol/L,168.27999999999997,3.3260000000000023,17.07,0.0,1.0
CC(C)C(=O)C(C)(C)CC=C(C)C,water,298,-3.489215864,mol/L,182.307,3.594000000000003,17.07,0.0,1.0
Oc1ccc(C=C)cc1C=C,water,298,-3.394062684,mol/L,146.189,2.6782000000000012,20.23,1.0,1.0
Cc1ccccc1,water,298,-2.19581482,mol/L,92.14099999999999,1.99502,0.0,0.0,0.0
CCCCCCCCO,water,298,-2.346690788,mol/L,130.23100000000002,2.3392000000000013,20.23,1.0,1.0
CCC\C=C(/CC)C=O,water,298,-2.333158298,mol/L,126.19899999999998,2.3218000000000005,17.07,0.0,1.0
Nc1ccc(Cl)cc1O,water,298,-2.390659928,mol/L,143.573,1.6278,46.25,2.0,2.0
CCOc1ccc(cc1)C(O)=O,water,298,-2.454899746,mol/L,166.17599999999996,1.7834999999999999,46.53,1.0,2.0
[OH-].[OH-].[Pb++].[Pb++].[Pb++].[O-]C([O-])=O.[O-]C([O-])=O,water,298,-5.547231918,mol/L,775.6300000000001,-6.390000000000002,186.38,0.0,8.0
Cc1ccccc1,water,298,-2.201024928,mol/L,92.14099999999999,1.99502,0.0,0.0,0.0
Nc1c(Cl)cc(cc1Cl)C(F)(F)F,water,298,-3.591642752,mol/L,230.01599999999993,3.5944000000000003,26.02,1.0,1.0
CNCCCN1c2ccccc2CCc3ccccc13,water,298,-3.657617041,mol/L,266.388,3.5328000000000026,15.27,1.0,2.0
[OH-].[OH-].[Pb++].[Pb++].[Pb++].[O-]C([O-])=O.[O-]C([O-])=O,water,298,-5.659205677,mol/L,775.6300000000001,-6.390000000000002,186.38,0.0,8.0
CC(C)(C)C(=O)C(Oc1ccc(Cl)cc1)n2ccnc2,water,298,-3.703092646,mol/L,292.766,3.729300000000002,44.120000000000005,0.0,4.0
CCCCCC(CO)CCC,water,298,-3.436011767,mol/L,158.28499999999997,2.9753000000000016,20.23,1.0,1.0
[Zr+4].CCC([O-])=O,water,298,-3.452196353,mol/L,164.295,-0.8562000000000001,40.129999999999995,0.0,2.0
CCCCCCCCC(O)CO,water,298,-2.478578955,mol/L,174.284,2.0902000000000007,40.46,2.0,2.0
Cc1ccccc1,water,298,-2.201774358,mol/L,92.14099999999999,1.99502,0.0,0.0,0.0
CCC(C)C1CCCCC1=O,water,298,-2.427057806,mol/L,154.253,2.791800000000001,17.07,0.0,1.0
COc1cc(C=O)ccc1OC(=O)C(C)C,water,298,-2.588667606,mol/L,222.23999999999995,2.0690999999999997,52.6,0.0,4.0
Cc1ccccc1,water,298,-2.206298299,mol/L,92.14099999999999,1.99502,0.0,0.0,0.0
[O-][N+](=O)c1cc(ccc1Nc2ccccc2)[S](=O)(=O)Nc3ccccc3,water,298,-2.810103214,mol/L,369.4020000000001,4.1392000000000015,101.34,2.0,5.0
OC(C(O)C(O)=O)C(O)=O,water,298,-1.420465328,mol/L,150.08599999999998,-2.1226,115.06,4.0,4.0
OC(=O)c1ccccc1C(O)=O,water,298,-1.464578438,mol/L,166.13199999999998,1.083,74.6,2.0,2.0
[K+].O[C@H]([C@@H](O)C([O-])=O)C(O)=O,water,298,-1.518689377,mol/L,188.17599999999996,-6.453299999999998,117.89000000000001,3.0,5.0
[Na+].[K+].O[C@H]([C@@H](O)C([O-])=O)C([O-])=O,water,298,-1.566671071,mol/L,210.15799999999993,-10.783999999999999,120.72,2.0,6.0
[Sr++].Cc1cc(N\N=C/2C(=O)C(=Cc3ccccc23)C([O-])=O)c(cc1Cl)[S]([O-])(=O)=O,water,298,-3.944100371,mol/L,506.4340000000002,0.7039199999999999,138.79,1.0,8.0
Cc1ccc(C)c(C)c1,water,298,-3.323250294,mol/L,120.195,2.611860000000001,0.0,0.0,0.0
C[C@]12CC[C@H]3[C@@H](CCC4=CC(=O)C=C[C@]34C)[C@@H]1CC[C@@H]2O,water,298,-3.700359651,mol/L,286.415,3.655200000000003,37.3,1.0,2.0
CCc1ccc(CC(C)(C)C#N)cc1,water,298,-3.351339264,mol/L,187.286,3.341280000000002,23.79,0.0,1.0
Cc1ccc(C)c(C)c1,water,298,-3.324011546,mol/L,120.195,2.611860000000001,0.0,0.0,0.0
ClCCCCCCCl,water,298,-3.43464733,mol/L,155.068,3.0244000000000018,0.0,0.0,0.0
CCC(=O)OC1C=CC2C3CCC(C3)C12,water,298,-3.558592794,mol/L,206.28499999999994,2.540300000000001,26.3,0.0,2.0
CCOc1ccccc1,water,298,-2.331841643,mol/L,122.16699999999996,2.0853,9.23,0.0,1.0
CN1C(=O)N(C(=O)C=C1C(F)(F)F)c2ccc(Cl)c(c2)C(=O)OC(C)(C)C(=O)OCC=C,water,298,-4.676528089,mol/L,474.8190000000003,2.873,96.60000000000001,0.0,8.0
CC(=C)c1ccccc1,water,298,-2.324352284,mol/L,118.17899999999996,2.7197000000000005,0.0,0.0,0.0
[Fe+3].Cc1ccc(cc1)[S]([O-])(=O)=O.Cc2ccc(cc2)[S]([O-])(=O)=O.Cc3ccc(cc3)[S]([O-])(=O)=O,water,298,-0.008033112,mol/L,569.4360000000003,2.694860000000001,171.59999999999997,0.0,9.0
[Fe].[C-]#[O+].[C-]#[O+].[C-]#[O+].[C-]#[O+].[C-]#[O+],water,298,-3.648570675,mol/L,195.89499999999995,-0.19005,99.5,0.0,0.0
C=CCOC(=O)COc1ccccc1,water,298,-2.536373209,mol/L,192.21400000000003,1.7946,35.53,0.0,3.0
[NH4+].[I-],water,298,1.08677602,mol/L,144.94299999999998,-2.6198,36.5,1.0,0.0
[Co++].CC([O-])=CC(C)=O.CC([O-])=CC(C)=O,water,298,-1.663554019,mol/L,257.15099999999995,-0.3235000000000001,80.25999999999999,0.0,4.0
Oc1cccc2cccnc12,water,298,-2.417556968,mol/L,145.16099999999997,1.9403999999999995,33.120000000000005,1.0,2.0
OC(=O)CCCCC(O)=O.C1CNCCN1,water,298,-0.623286686,mol/L,232.28,-0.10479999999999862,98.66,4.0,4.0
CC\C(C)=C\CCC(C)=O,water,298,-2.404968152,mol/L,140.22599999999997,2.711900000000001,17.07,0.0,1.0
CCCCCCCCO,water,298,-2.373562777,mol/L,130.23100000000002,2.3392000000000013,20.23,1.0,1.0
CCN(CC)CC,water,298,-0.264787782,mol/L,101.193,1.3481,3.24,0.0,1.0
CN[S](=O)(=O)c1cc(OC)c(N)cc1OC,water,298,-3.651080563,mol/L,246.28799999999995,0.19409999999999977,90.65,2.0,5.0
CC(=O)c1ccccc1,water,298,-1.340155045,mol/L,120.15099999999995,1.8892,17.07,0.0,1.0
NC(N)=O.O[P](O)(O)=O,water,298,0.537602002,mol/L,158.04999999999998,-1.9048000000000005,146.87,5.0,2.0
NC(N)=O,water,298,0.957840099,mol/L,60.056,-0.9762000000000002,69.11,2.0,1.0
O=C1Nc2ccccc2N1,water,298,-2.392751997,mol/L,134.13799999999998,0.8561999999999999,48.65,2.0,1.0
[Fe].[C-]#[O+].[C-]#[O+].[C-]#[O+].[C-]#[O+].[C-]#[O+],water,298,-3.292023351,mol/L,195.89499999999995,-0.19005,99.5,0.0,0.0
CC(CCOC(=O)C=C)CCOC(=O)C=C,water,298,-2.621433551,mol/L,226.27199999999993,1.8611,52.6,0.0,4.0
CC(=O)c1ccccc1,water,298,-1.34733363,mol/L,120.15099999999995,1.8892,17.07,0.0,1.0
Nc1cccc(Cl)c1,water,298,-1.373368413,mol/L,127.574,1.9222,26.02,1.0,1.0
CCCCCCCCO,water,298,-2.382320616,mol/L,130.23100000000002,2.3392000000000013,20.23,1.0,1.0
CC(=O)OC1CCC2CCCCC2C1,water,298,-3.560504415,mol/L,196.28999999999996,2.908400000000001,26.3,0.0,2.0
CCCCCCCCCCCCCCC(C)c1cc(C)cc(C)c1O,water,298,-7.335707323,mol/L,346.59900000000005,8.203740000000005,20.23,1.0,1.0
C1CC=CC1,water,298,-2.104914482,mol/L,68.11900000000001,1.7265,0.0,0.0,0.0
CCl,water,298,-0.977276535,mol/L,50.488,0.855,0.0,0.0,0.0
OC(=O)CC(C[P]1(=O)Oc2ccccc2c3ccccc13)C(O)=O,water,298,-2.813509506,mol/L,346.2750000000001,2.8249000000000004,100.9,2.0,4.0
N,water,298,1.493854372,mol/L,17.031,0.16199999999999998,35.0,1.0,1.0
CC(C)[C@@H]1CC[C@@H](C)CC1=O,water,298,-2.463139098,mol/L,154.253,2.6477000000000013,17.07,0.0,1.0
CCCOC(=O)CC,water,298,-1.340780734,mol/L,116.15999999999998,1.3496000000000001,26.3,0.0,2.0
CC(C)C,water,298,-3.036001712,mol/L,58.123999999999995,1.6622999999999999,0.0,0.0,0.0
CCCC,water,298,-3.036001712,mol/L,58.123999999999995,1.8064,0.0,0.0,0.0
CC,water,298,-2.749779646,mol/L,30.07,1.0262,0.0,0.0,0.0
C,water,298,-2.476931802,mol/L,16.043,0.6361,0.0,0.0,0.0
CCC,water,298,-2.916055263,mol/L,44.096999999999994,1.4163,0.0,0.0,0.0
[Ca++].CCCCCCCCCCCCCCCCCC([O-])=O.CCCCCCCCCCCCCCCCCC([O-])=O,water,298,-1.057437323,mol/L,607.0300000000003,9.614799999999999,80.25999999999999,0.0,4.0
C.O[S](O)(=O)=O,water,298,-3.333093505,mol/L,114.12199999999999,-0.016699999999999826,74.6,2.0,2.0
FC(F)(F)C(F)(F)F,water,298,-2.423907212,mol/L,138.01000000000002,2.1109999999999998,0.0,0.0,0.0
CC(C)=CCC\C(C)=C/CCC=O,water,298,-3.538303545,mol/L,180.29099999999997,3.6582000000000026,17.07,0.0,1.0
CCCC(C)C.CCCC(C)CC.CCC(C)CC.CCC(C)C(C)C,water,298,-3.85543295,mol/L,372.76600000000013,10.406099999999995,0.0,0.0,0.0
CCCCC,water,298,-3.142239011,mol/L,72.151,2.1965000000000003,0.0,0.0,0.0
C1CCCCC1,water,298,-3.209112704,mol/L,84.162,2.3406000000000002,0.0,0.0,0.0
CC\C=C\C,water,298,-3.129931458,mol/L,70.135,1.9725,0.0,0.0,0.0
CC(=C)C(=O)Oc1ccccc1,water,298,-2.494851361,mol/L,162.188,2.1681,26.3,0.0,2.0
[Co++].CC([O-])=CC(C)=O.CC([O-])=CC(C)=O,water,298,-1.697530099,mol/L,257.15099999999995,-0.3235000000000001,80.25999999999999,0.0,4.0
CC1=C(C=O)C(C)(C)CC=C1,water,298,-2.465007757,mol/L,150.221,2.4879000000000007,17.07,0.0,1.0
CN(C)Cc1cc(c(O)c(c1)C(C)(C)C)C(C)(C)C,water,298,-2.711387028,mol/L,263.42499999999995,4.0488000000000035,23.47,1.0,2.0
CC(=O)CC(C)(C)C1CCCCC1,water,298,-3.548153643,mol/L,182.30699999999993,3.5720000000000027,17.07,0.0,1.0
S=C1Nc2ccccc2S1,water,298,-3.515816723,mol/L,167.25799999999998,2.9588900000000002,15.79,1.0,2.0
CC(C)[C@@H]1CC[C@@H](C)C[C@H]1O,water,298,-2.488009121,mol/L,156.269,2.439500000000001,20.23,1.0,1.0
CC(C)C1CCC(C)CC1O,water,298,-2.488009121,mol/L,156.269,2.439500000000001,20.23,1.0,1.0
[Co++].[O-][Mo]([O-])(=O)=O,water,298,-2.634320541,mol/L,218.869,-2.6205999999999996,80.25999999999999,0.0,4.0
C=COCCCCOC=C,water,298,-2.44960211,mol/L,142.19799999999998,2.0868,18.46,0.0,2.0
Nc1ccc(Nc2ccccc2)cc1,water,298,-2.563130476,mol/L,184.24200000000002,3.0124000000000013,38.05,2.0,2.0
CCC(C)C(=O)N(C)c1ccccc1,water,298,-1.580579513,mol/L,191.27400000000003,2.695500000000001,20.310000000000002,0.0,1.0
CO[Si](C)(OC)C=C,water,298,0.577623585,mol/L,132.23499999999999,1.0764,18.46,0.0,2.0
[Na+].[Na+].[O-]C(=O)c1ccccc1C2=C3C=CC(=O)C=C3Oc4cc([O-])ccc24,water,298,0.12346464,mol/L,376.27500000000015,-3.9900999999999964,93.4,0.0,5.0
NC(=O)c1cccnc1,water,298,0.612158315,mol/L,122.12699999999997,0.18050000000000016,55.980000000000004,1.0,2.0
CNc1ccc(O)cc1.CNc2ccc(O)cc2.O[S](O)(=O)=O,water,298,-0.838079267,mol/L,344.38900000000007,2.2149999999999994,139.12,6.0,6.0
[Na+].[Na+].[Na+].[O-][S](=O)(=O)c1ccc2c(c1)C=C(C(=O)/C2=N/Nc3ccc(c4ccccc34)[S]([O-])(=O)=O)[S]([O-])(=O)=O,water,298,-1.082414087,mol/L,604.4830000000003,-8.055000000000014,213.05999999999997,1.0,12.0
Cc1cc(C)cc(O)c1,water,298,-1.387983905,mol/L,122.16699999999997,2.0090399999999997,20.23,1.0,1.0
CCCCOC(C)=O,water,298,-1.366086599,mol/L,116.15999999999998,1.3496000000000001,26.3,0.0,2.0
Nc1ccc(Nc2ccccc2)cc1,water,298,-2.566418635,mol/L,184.24200000000002,3.0124000000000013,38.05,2.0,2.0
CCC(COC(=O)C=C)(COC(=O)C=C)COC(=O)C=C,water,298,-2.772789495,mol/L,296.31899999999996,1.5704,78.9,0.0,6.0
CC(C)CC(=O)CC(C)C,water,298,-2.454057846,mol/L,142.242,2.6477000000000013,17.07,0.0,1.0
COc1ccc(CC=C)cc1OC,water,298,-2.55201324,mol/L,178.231,2.4323000000000006,18.46,0.0,2.0
Nc1ccc2c(O)cc(cc2c1)[S](O)(=O)=O,water,298,-2.679885573,mol/L,239.252,1.3743,100.62,3.0,4.0
[Al+3].[O-]c1ccc2cc(ccc2c1N=Nc3ccc(cc3)[S]([O-])(=O)=O)[S]([O-])(=O)=O,water,298,-2.936886553,mol/L,432.37100000000015,1.7562000000000002,162.17999999999998,0.0,9.0
Clc1ccccc1,water,298,-2.352410222,mol/L,112.55899999999997,2.34,0.0,0.0,0.0
CCCCCCCCO,water,298,-2.415744371,mol/L,130.23100000000002,2.3392000000000013,20.23,1.0,1.0
CCCOC(=O)c1ccc(O)cc1,water,298,-2.556792013,mol/L,180.20299999999997,1.9589999999999999,46.53,1.0,3.0
CCCCCC1=C(CCC1CC(=O)OC)OC(C)=O,water,298,-3.721988672,mol/L,268.35299999999995,3.357000000000002,52.6,0.0,4.0
C=CC1CCC=CC1,water,298,-3.335193031,mol/L,108.18399999999998,2.5287000000000006,0.0,0.0,0.0
COc1ccc(cc1O)[C@@H]2CC(=O)c3c(O)cc(O[C@@H]4O[C@H](CO[C@@H]5O[C@@H](C)[C@H](O)[C@@H](O)[C@H]5O)[C@@H](O)[C@H](O)[C@H]4O)cc3O2,water,298,-5.010485646,mol/L,610.5650000000003,-1.1566000000000003,234.28999999999996,8.0,15.0
CCCCCCCC/C=C/CCCCCCCCN(CCO)CCO,water,298,-4.78011829,mol/L,355.6070000000001,5.310500000000006,43.7,2.0,3.0
CCCCOC(=O)c1ccc(C(=O)OCCCC)c(c1)C(=O)OCCCC,water,298,-4.807173711,mol/L,378.46500000000015,4.557300000000004,78.90000000000002,0.0,6.0
[O--].[O--].[O--].[Bi+3].[Bi+3],water,298,-4.898451805,mol/L,465.957,-1.118,85.5,0.0,0.0
CCC(C)N1N=CN(C1=O)c2ccc(cc2)N3CCN(CC3)c4ccc(O)cc4,water,298,-4.828521956,mol/L,393.4910000000002,3.0372000000000012,66.53,1.0,7.0
CO[Si](CCCOC(=O)C=C)(OC)OC,water,298,-4.606388779,mol/L,234.32399999999998,0.9837999999999998,53.99000000000001,0.0,5.0
CC(C)CCCCCCCCCCO,water,298,-4.538396035,mol/L,200.36599999999996,4.145600000000004,20.23,1.0,1.0
CC\C=C/CCOC(=O)C\C=C/CC,water,298,-4.537023319,mol/L,196.29,3.242200000000002,26.3,0.0,2.0
CCCCCCCCCCCO,water,298,-4.480440668,mol/L,172.31199999999998,3.5095000000000023,20.23,1.0,1.0
CC(=C)[C@@H]1CCC(=CC1)C,water,298,-4.379185993,mol/L,136.238,3.308900000000002,0.0,0.0,0.0
C[C@]12CC[C@H]3[C@@H](CCC4=CC(=O)CC[C@H]34)[C@@H]1CC[C@@]2(O)C#C,water,298,-4.726648631,mol/L,298.426,3.4925000000000024,37.3,1.0,2.0
[Ba++].[O-][B][O-],water,298,-2.340733519,mol/L,180.138,-3.1396,46.12,0.0,2.0
CC(c1ccccc1)c2ccccc2,water,298,-4.519554064,mol/L,182.266,3.8384000000000027,0.0,0.0,0.0
CC(=C)C(=O)OC1CC2CCC1(C)C2(C)C,water,298,-4.611395262,mol/L,222.32799999999995,3.320500000000002,26.3,0.0,2.0
CC1(C)[C@H]2CC[C@]1(C)C(C2)OC(=O)C=C,water,298,-4.583092455,mol/L,208.30099999999996,2.9304000000000014,26.3,0.0,2.0
O=C1C(c2ccc3ccccc3n2)C(=O)c4ccccc14,water,298,-4.701186127,mol/L,273.291,3.3976000000000015,47.03,0.0,3.0
CCCCC(CC)COC(=O)OOC(C)(C)C,water,298,-4.659958513,mol/L,246.34699999999995,4.086100000000004,44.760000000000005,0.0,4.0
CO[Si](OC)(C1CCCC1)C2CCCC2,water,298,-4.632799679,mol/L,228.4079999999999,3.6098000000000026,18.46,0.0,2.0
CC1CC(CC(C)(C)C1)OC(=O)C(C)=C,water,298,-4.598598509,mol/L,210.31699999999998,3.320500000000002,26.3,0.0,2.0
Oc1ccccc1C(=O)OC2CCCCC2,water,298,-4.618675539,mol/L,220.26799999999992,2.8817000000000013,46.53,1.0,3.0
COc1ccc(cc1O)[C@@H]2CC(=O)c3c(O)cc(O[C@@H]4O[C@H](CO[C@@H]5O[C@@H](C)[C@H](O)[C@@H](O)[C@H]5O)[C@@H](O)[C@H](O)[C@H]4O)cc3O2,water,298,-5.064746161,mol/L,610.5650000000003,-1.1566000000000003,234.28999999999996,8.0,15.0
CC(c1ccccc1)c2ccccc2,water,298,-4.542203974,mol/L,182.266,3.8384000000000027,0.0,0.0,0.0
CCCC=O.Nc1ccccc1,water,298,-4.50210133,mol/L,165.23600000000002,2.2542,43.09,1.0,2.0
[Zn++].CCCCCCCCCCCC([O-])=O.CCCCCCCCCCCC([O-])=O,water,298,-4.950531484,mol/L,464.0180000000004,5.311900000000005,80.25999999999999,0.0,4.0
CCCCCCCCCCCCCCCCCC(O)=O.NCCNCCNCCNCCN,water,298,-4.960419449,mol/L,473.7910000000003,4.005100000000004,125.42999999999999,6.0,6.0
[Gd+3].[Gd+3].[O-]C(=O)C([O-])=O.[O-]C(=O)C([O-])=O.[O-]C(=O)C([O-])=O,water,298,-5.054773725,mol/L,578.5540000000003,-10.5414,240.77999999999997,0.0,12.0
CC/C=C/CCOC(=O)c1ccccc1O,water,298,-4.643981404,mol/L,220.26800000000003,2.9053000000000018,46.53,1.0,3.0
[O-][N+](=O)N1CN(CN(CN(C1)[N+]([O-])=O)[N+]([O-])=O)[N+]([O-])=O,water,298,-4.772550531,mol/L,296.156,-2.195199999999998,185.52,0.0,8.0
CC(C)(C)C1CCC(CC1)OC(=O)C=C,water,298,-4.623904374,mol/L,210.31699999999995,3.320500000000002,26.3,0.0,2.0
Clc1ccccc1,water,298,-2.354150883,mol/L,112.55899999999997,2.34,0.0,0.0,0.0
CC(C)[C@@H]1CC[C@@H](C)CC1=O,water,298,-2.491877231,mol/L,154.253,2.6477000000000013,17.07,0.0,1.0
COC(=O)c1ccc(cc1[N+]([O-])=O)C(O)=O,water,298,-2.657001848,mol/L,225.15599999999998,1.0796,106.74000000000001,1.0,5.0
CCCCCCCCO,water,298,-2.420109176,mol/L,130.23100000000002,2.3392000000000013,20.23,1.0,1.0
Cc1cc(C)cc(C)c1,water,298,-3.382657059,mol/L,120.19499999999998,2.611860000000001,0.0,0.0,0.0
CC(=O)OC(C)(C)CCCC(=C)C=C,water,298,-3.597416499,mol/L,196.28999999999996,3.2406000000000024,26.3,0.0,2.0
COC(=O)c1ccc(cc1)C(=O)OC,water,298,-3.595370997,mol/L,194.18599999999998,1.2597999999999998,52.60000000000001,0.0,4.0
CC1C(C)(C)C2=C(C(=O)CCC2)C1(C)C,water,298,-3.623478781,mol/L,206.32899999999992,3.738100000000003,17.07,0.0,1.0
S(Sc1sc2ccccc2n1)c3sc4ccccc4n3,water,298,-3.83159557,mol/L,332.50000000000006,5.705400000000002,25.78,0.0,6.0
Cc1ccc(cc1Cl)[N+]([O-])=O,water,298,-3.544278177,mol/L,171.583,2.5566200000000006,43.14,0.0,2.0
[Cl-].CCCCCCCCCCCCCCCCCC[N+](C)(C)C,water,298,-3.851456788,mol/L,348.0590000000001,3.9581000000000017,0.0,0.0,0.0
Cc1cc(C)cc(O)c1,water,298,-1.398534087,mol/L,122.16699999999997,2.0090399999999997,20.23,1.0,1.0
Clc1ccccc1,water,298,-2.362960404,mol/L,112.55899999999997,2.34,0.0,0.0,0.0
CC(C)(c1ccc(O)cc1)c2ccc(O)cc2.OC(=O)C=C.ClCC3CO3,water,298,-2.909413454,mol/L,392.87900000000025,4.304700000000003,90.28999999999999,3.0,4.0
CCCN(CCC)CCC,water,298,-2.472220255,mol/L,143.27399999999997,2.5184000000000006,3.24,0.0,1.0
N,water,298,1.451806889,mol/L,17.031,0.16199999999999998,35.0,1.0,1.0
Cc1ccc(O)c(C)c1.Cc2ccc(C)c(O)c2.Cc3cc(C)cc(O)c3.Cc4ccc(O)cc4C.Cc5cccc(O)c5C.Cc6cccc(C)c6O,water,298,-2.183863922,mol/L,733.0020000000002,12.05423999999998,121.38000000000001,6.0,6.0
Cc1cccc(C)c1O,water,298,-1.405712672,mol/L,122.16699999999999,2.00904,20.23,1.0,1.0
O=C1CCCCCN1C(=O)NCCCCCCNC(=O)N2CCCCCC2=O,water,298,-3.906400656,mol/L,394.51600000000025,2.771200000000001,98.82,2.0,4.0
Cc1cc(C)cc(C)c1,water,298,-3.396839364,mol/L,120.19499999999998,2.611860000000001,0.0,0.0,0.0
CC(C)CCOC(=O)CC(C)C,water,298,-3.554059535,mol/L,172.26799999999997,2.6218000000000012,26.3,0.0,2.0
CCCCCC(CO)CCC,water,298,-3.518198523,mol/L,158.28499999999997,2.9753000000000016,20.23,1.0,1.0
Nc1ccc(CCc2ccc(N)cc2)cc1,water,298,-3.645700574,mol/L,212.29600000000002,2.6362000000000005,52.04,2.0,2.0
COC(=O)c1cccnc1,water,298,-0.459550859,mol/L,137.138,0.8681999999999999,39.19,0.0,3.0
Cc1ccc(O)cc1C,water,298,-1.409346957,mol/L,122.16699999999999,2.0090399999999997,20.23,1.0,1.0
NC(Nc1ccccc1)=Nc2ccccc2,water,298,-2.648140111,mol/L,211.26799999999997,2.7449000000000012,50.41,2.0,1.0
[Ca++].O[C@H]([C@@H](O)C(O)=O)C(O)=O,water,298,-2.602434694,mol/L,190.164,-2.5033999999999996,115.06,4.0,4.0
OB(O)O,water,298,-0.117278319,mol/L,61.83300000000001,-2.0518,60.69,3.0,3.0
[Ca++].[Ca++].[Ca++].[O-]B([O-])[O-].[O-]B([O-])[O-],water,298,-0.702364809,mol/L,237.852,-9.038,138.35999999999999,0.0,6.0
[K].OB(O)O,water,298,-0.330082578,mol/L,100.93099999999998,-2.4326,60.69,3.0,3.0
Cc1ccc(O)c(C)c1.Cc2ccc(C)c(O)c2.Cc3cc(C)cc(O)c3.Cc4ccc(O)cc4C.Cc5cccc(O)c5C.Cc6cccc(C)c6O,water,298,-2.193007302,mol/L,733.0020000000002,12.05423999999998,121.38000000000001,6.0,6.0
Cc1cccc(C)c1O,water,298,-1.414856051,mol/L,122.16699999999999,2.00904,20.23,1.0,1.0
CCC(C)C,water,298,-3.178814458,mol/L,72.151,2.0524,0.0,0.0,0.0