Solute,Solvent,Temperature_K,Solubility,Units,MW,LogP,TPSA,HBD,HBA
FC(F)=C(F)C(F)(F)F,water,298,-2.824355749,mol/L,150.021,2.6263,0.0,0.0,0.0
ClCCCBr,water,298,-2.846861546,mol/L,157.438,2.0102,0.0,0.0,0.0
OC(=O)CCCCCCCCC(O)=O,water,298,-2.955640512,mol/L,202.24999999999997,2.2763999999999998,74.6,2.0,2.0
[Na+].[Na+].[O-]C(=O)CCCCCCCCC([O-])=O,water,298,-3.041064725,mol/L,246.2139999999999,-6.384999999999998,80.25999999999999,0.0,4.0
O=C1CCCCCCCCCCCN1,water,298,-2.946870646,mol/L,197.32199999999997,3.0172000000000008,29.1,1.0,1.0
CCC=C,water,298,-2.402671814,mol/L,56.108,1.5824,0.0,0.0,0.0
CCCCOCCOCCOC(=O)C(C)=C,water,298,-2.015948507,mol/L,230.30399999999995,1.9389999999999998,44.760000000000005,0.0,4.0
CCCCOCOCCCC,water,298,-2.857486993,mol/L,160.25699999999998,2.577300000000001,18.46,0.0,2.0
Oc1ccc(cc1)C(c2ccc(O)cc2)(C(F)(F)F)C(F)(F)F,water,298,-3.179502969,mol/L,336.231,4.5085000000000015,40.46,2.0,2.0
CC(=O)c1cccc2ccccc12,water,298,-2.884634649,mol/L,170.21099999999998,3.0424000000000015,17.07,0.0,1.0
CC(C)c1ccc(N)cc1,water,298,-1.785831196,mol/L,135.20999999999998,2.3922000000000008,26.02,1.0,1.0
[OH-].[Cr+3].CCCCC(CC)COCCCN.CC(=O)\C(=N/Nc1cc(cc(c1[O-])[S]([O-])(=O)=O)[N+]([O-])=O)C(=O)[N-]c2ccccc2.[H+],water,298,-3.485996843,mol/L,676.6890000000002,3.6628000000000016,261.28,2.0,13.0
[Na+].[Na+].COc1cc(c(C)cc1N\N=C2\C(=O)C=Cc3cc(ccc23)[S]([O-])(=O)=O)[S]([O-])(=O)=O,water,298,-0.353435338,mol/L,496.43000000000023,-4.768079999999992,165.08999999999997,1.0,10.0
CSC,water,298,-0.450927601,mol/L,62.137,0.9792,0.0,0.0,1.0
COc1ccc(N)cc1,water,298,-0.748029368,mol/L,123.15499999999999,1.2773999999999999,35.25,1.0,2.0
CCCCCO,water,298,-0.602799636,mol/L,88.14999999999999,1.1689,20.23,1.0,1.0
COc1ccc(cc1N)[N+]([O-])=O,water,298,-1.883279356,mol/L,168.152,1.1856,78.38999999999999,1.0,4.0
CC(=C)C(=O)OCC=C,water,298,-1.758481787,mol/L,126.15499999999999,1.2917,26.3,0.0,2.0
FC(F)(I)C(F)(F)C(F)(F)C(F)(F)I,water,298,-3.314476262,mol/L,453.83599999999996,4.3126,0.0,0.0,0.0
CCCCCCCCCCCCCCCCCC(=O)NCCCN(C)C,water,298,-3.224191557,mol/L,368.6500000000001,6.3158000000000065,32.34,1.0,2.0
CC(C)(C)c1cc(CO)cc(c1O)C(C)(C)C,water,298,-4.012782104,mol/L,236.35499999999996,3.4795000000000025,40.46,2.0,2.0
Clc1cc(Cl)c(Cl)nc1Cl,water,298,-3.98211507,mol/L,216.882,3.6952,12.89,0.0,1.0
CC(C)CCOCCc1ccccc1,water,298,-3.933735783,mol/L,192.30200000000002,3.291800000000002,9.23,0.0,1.0
[Mg++].CCCCCCCCCc1cc2ccccc2c(c1CCCCCCCCC)[S]([O-])(=O)=O.CCCCCCCCCc3cc4ccccc4c(c3CCCCCCCCC)[S]([O-])(=O)=O,water,298,-4.62888944,mol/L,943.7369999999994,16.279399999999963,114.39999999999998,0.0,6.0
Oc1ccc2ccccc2c1C=O,water,298,-3.89356759,mol/L,172.18299999999996,2.3579,37.3,1.0,2.0
O=C(Cc1ccccc1)OCCc2ccccc2,water,298,-4.038334705,mol/L,240.30199999999996,3.0150000000000015,26.3,0.0,2.0
Nc1nc(N)c(N=O)c(N)n1,water,298,-3.845472951,mol/L,154.13299999999998,-0.3789000000000002,133.26999999999998,3.0,7.0
ClC\C=C/Cl,water,298,-1.706753006,mol/L,110.971,1.9777,0.0,0.0,0.0
CNC(=O)c1cc(Oc2ccc(NC(=O)Nc3ccc(Cl)c(c3)C(F)(F)F)cc2)ccn1,water,298,-6.667295084,mol/L,464.83100000000013,5.549700000000002,92.35000000000001,3.0,4.0
COCc1ccc(O)c(OC)c1,water,298,-1.893447681,mol/L,168.19199999999998,1.5472,38.69,1.0,3.0
CCCCCC1COCCC1OC(C)=O,water,298,-2.998795888,mol/L,214.30499999999995,2.5349000000000004,35.53,0.0,3.0
Nc1ccc(N=Nc2ccccc2)c(N)c1,water,298,-2.997665561,mol/L,212.25600000000003,3.2664,76.75999999999999,2.0,4.0
COc1ccc(O)c(c1)C(C)(C)C,water,298,-2.927488442,mol/L,180.24699999999996,2.6983000000000006,29.46,1.0,2.0
C1CC(CCN1)N2CCOCC2,water,298,-2.902722822,mol/L,170.256,0.07059999999999977,24.5,1.0,3.0
[K+].CCCCCCCCCCCCCCCCO[P](O)([O-])=O,water,298,-3.230588683,mol/L,360.51599999999996,1.9489999999999985,69.59,1.0,3.0
CCO[Si](CC(C)C)(OCC)OCC,water,298,-3.016846171,mol/L,220.38499999999993,2.690800000000001,27.69,0.0,3.0
Oc1cc(C=O)cc(c1O)[N+]([O-])=O,water,298,-1.937833911,mol/L,183.11899999999997,0.8184999999999998,100.66999999999999,2.0,5.0
O=C/C=C/c1ccccc1,water,298,-1.796741824,mol/L,132.16199999999998,1.8987,17.07,0.0,1.0
CCOC(=O)C(C)(C)c1ccccc1,water,298,-3.045838317,mol/L,192.258,2.5273000000000003,26.3,0.0,2.0
COc1ccc(N)cc1,water,298,-0.768232754,mol/L,123.15499999999999,1.2773999999999999,35.25,1.0,2.0
COc1ccc(cc1N)[S](O)(=O)=O,water,298,-1.985745015,mol/L,203.219,0.5241,89.62,2.0,4.0
Cc1ccc(N)c(c1)[N+]([O-])=O,water,298,-1.860061225,mol/L,152.15300000000002,1.48542,69.16,1.0,3.0
S=C=S,water,298,-1.559422096,mol/L,76.14500000000001,1.0181,0.0,0.0,2.0
COC(=O)c1ccccc1,water,298,-1.811798351,mol/L,136.14999999999998,1.4732,26.3,0.0,2.0
CCCCCCCC(OC)OC,water,298,-2.918005419,mol/L,174.284,2.9658000000000015,18.46,0.0,2.0
C1CNCCNCCNCCN1,water,298,-0.031020416,mol/L,172.276,-1.6415999999999973,48.12,4.0,4.0
C1CNCCNCCNCCN1,water,298,-0.037567693,mol/L,172.276,-1.6415999999999973,48.12,4.0,4.0
C=CCCCCCCCCC=O,water,298,-3.8931862,mol/L,168.28,3.4921000000000024,17.07,0.0,1.0
COC(=O)CCCCCCCCC(=O)OC1CC(C)(C)N(C)C(C)(C)C1.CN2C(C)(C)CC(CC2(C)C)OC(=O)CCCCCCCCC(=O)OC3CC(C)(C)N(C)C(C)(C)C3,water,298,-4.611221235,mol/L,878.3339999999994,10.971199999999994,114.92000000000002,0.0,11.0
CCCCCCCCCCO,water,298,-3.875157305,mol/L,158.285,3.119400000000002,20.23,1.0,1.0
CC(C)CCC(C)Nc1ccc(NC(C)CCC(C)C)cc1,water,298,-4.161399379,mol/L,304.52200000000005,6.159800000000006,24.06,2.0,2.0
CC(C)Cc1ccc(cc1)C(C)C(O)=O,water,298,-3.992248355,mol/L,206.28499999999997,3.073200000000001,37.3,1.0,1.0
[Na+].[O-][Cl](=O)(=O)=O,water,298,-1.766528496,mol/L,122.439,-7.752000000000001,92.24,0.0,4.0
[Na+].[O-][Cl](=O)(=O)=O,water,298,-1.767773488,mol/L,122.439,-7.752000000000001,92.24,0.0,4.0
[K+].[I-],water,298,1.097950015,mol/L,166.002,-5.992,0.0,0.0,0.0
[K].CCCCCCCCCCCCCCCCCC.O[P](O)(O)=O,water,298,-3.283035583,mol/L,391.594,5.958400000000009,77.75999999999999,3.0,1.0
C[C@@H]1C[C@H]2[C@@H]3C[C@H](F)C4=CC(=O)C=C[C@]4(C)[C@H]3[C@@H](O)C[C@]2(C)[C@H]1C(=O)CO,water,298,-3.266097899,mol/L,376.4680000000002,2.6367000000000016,74.6,2.0,4.0
CCNc1nc(NC(C)C)nc(SC)n1,water,298,-3.047039957,mol/L,227.337,1.8455999999999997,62.730000000000004,2.0,6.0
COc1cccc(c1)C(C)=O,water,298,-1.869107387,mol/L,150.17699999999996,1.8978,26.3,0.0,2.0
C[C@@H]1C[C@H]2[C@@H]3C[C@H](F)C4=CC(=O)C=C[C@]4(C)[C@H]3[C@@H](O)C[C@]2(C)[C@H]1C(=O)CO,water,298,-3.268232029,mol/L,376.4680000000002,2.6367000000000016,74.6,2.0,4.0
C[C@@H]1C[C@H]2[C@@H]3C[C@H](F)C4=CC(=O)C=C[C@]4(C)[C@H]3[C@@H](O)C[C@]2(C)[C@H]1C(=O)CO,water,298,-3.267590688,mol/L,376.4680000000002,2.6367000000000016,74.6,2.0,4.0
Nc1cccc(O)c1,water,298,-0.734740139,mol/L,109.12799999999999,0.9743999999999999,46.25,2.0,2.0
[nH]1cnc2ccccc12,water,298,-1.769197233,mol/L,118.13899999999995,1.5629,28.68,1.0,1.0
O=C1NC(=O)NC(=O)N1,water,298,-1.807646076,mol/L,129.075,-2.2485000000000004,98.57999999999998,3.0,3.0
ClCCCN1C(=O)Nc2ccccc12,water,298,-3.020394269,mol/L,210.66400000000002,1.9585,37.79,1.0,2.0
CO[S](C)(=O)=O,water,298,0.259108583,mol/L,110.13399999999999,-0.40759999999999996,43.370000000000005,0.0,3.0
Clc1ccccn1,water,298,-0.754145669,mol/L,113.54699999999998,1.7349999999999997,12.89,0.0,1.0
[Na+].ClN1C(=O)[N-]C(=O)N(Cl)C1=O,water,298,-1.041288047,mol/L,219.947,-4.6648000000000005,75.17,0.0,5.0
Oc1cc(Cl)ccc1Cl,water,298,-1.911165602,mol/L,163.003,2.699,20.23,1.0,1.0
[Na+].[Na+].[Cu++].[Cu++].N[S](=O)(=O)c1ccc([O-])c(c1)N=Nc2c([O-])c3ccc(Nc4ccc5c([O-])c(N=Nc6cc(ccc6[O-])[S](N)(=O)=O)c(cc5c4)[S]([O-])(=O)=O)cc3cc2[S]([O-])(=O)=O,water,298,-2.710489277,mol/L,1026.879,-4.0321999999999925,388.43,3.0,19.0
NC(=O)c1ccccc1O,water,298,-1.836127816,mol/L,137.13799999999998,0.49110000000000004,63.32000000000001,2.0,2.0
CCCCC(CC)COC(=O)CCCCCCCCC(=O)OCC(CC)CCCC,water,298,-3.329074326,mol/L,426.68200000000024,7.626400000000009,52.60000000000001,0.0,4.0
[H+].[Cl-].CCN(CC)CCNC(=O)c1cc(Cl)c(N)cc1OC,water,298,-3.225649088,mol/L,336.26300000000015,-0.8810999999999976,67.59,2.0,4.0
[As],water,298,-2.573579366,mol/L,74.922,-0.3808,0.0,0.0,0.0
OC(=O)CCCCCCCCCCC(O)=O,water,298,-3.061271485,mol/L,230.30399999999995,3.0566000000000013,74.6,2.0,2.0
CC=C,water,298,-2.323056056,mol/L,42.080999999999996,1.1923000000000001,0.0,0.0,0.0
CC(=O)OC(C)(C)CCCC(=C)C=C,water,298,-3.972751889,mol/L,196.28999999999996,3.2406000000000024,26.3,0.0,2.0
O(c1ccccc1)c2ccccc2,water,298,-3.912924288,mol/L,170.211,3.478900000000002,9.23,0.0,1.0
C[C@]12CCC(=O)C=C1CC[C@@H]3[C@@H]2CC[C@@]4(C)[C@H]3CC[C@@]45CCC(=O)O5,water,298,-4.225003779,mol/L,342.47900000000016,4.5941000000000045,43.370000000000005,0.0,3.0
CC(C)COC(=O)c1ccccc1C(=O)OCC(C)C,water,298,-4.137092067,mol/L,278.348,3.3122000000000025,52.60000000000001,0.0,4.0
CCC(COC(=O)C(C)=C)(COC(=O)C(C)=C)COC(=O)C(C)=C,water,298,-4.226234297,mol/L,338.40000000000003,2.7407000000000012,78.9,0.0,6.0
CC(C)c1ccc(O)cc1C,water,298,-2.854511354,mol/L,150.22099999999995,2.824020000000001,20.23,1.0,1.0
COC1CC(C)CCC1C(C)C,water,298,-3.930174452,mol/L,170.296,3.093600000000002,9.23,0.0,1.0
[Na+].[Na+].[O-]C(=O)c1ccccc1C2=C3C=C(Br)C(=O)C=C3Oc4c2cc(Br)c([O-])c4C5=CC=C[Hg]5,water,298,-4.593683066,mol/L,784.7170000000002,-1.5143999999999975,93.4,0.0,5.0
[Co],water,298,-4.302011219,mol/L,58.933,-0.0025,0.0,0.0,0.0
CC1=CCC2C(C1)C2(C)C,water,298,-4.670405271,mol/L,136.238,2.9987000000000013,0.0,0.0,0.0
O=C1CCCCCCCCCC\C=C/CC1,water,298,-4.883187113,mol/L,222.37199999999996,4.806500000000004,17.07,0.0,1.0
O=[Zn],water,298,-4.448167715,mol/L,81.389,-0.1213,17.07,0.0,1.0
Cc1ccccc1Oc2ccccc2C,water,298,-4.843927714,mol/L,198.26500000000001,4.095740000000003,9.23,0.0,1.0
CCCCOC(=O)c1ccccc1C(=O)OCc2ccccc2,water,298,-5.044413258,mol/L,312.36499999999995,4.000500000000003,52.60000000000001,0.0,4.0
CC(C)c1cccc2ccccc12,water,298,-4.782393555,mol/L,170.25499999999997,3.9632000000000023,0.0,0.0,0.0
CCC(Cc1ccc(C)cc1)(N(C)C)C(=O)c2ccc(cc2)N3CCOCC3,water,298,-5.133233152,mol/L,380.5320000000002,3.9674200000000033,32.78,0.0,4.0
COc1ccc(cc1[N+]([O-])=O)C(=O)Nc2ccccc2,water,298,-4.987825809,mol/L,272.26,2.8557000000000006,81.47,1.0,4.0
[Gd+3].[Gd+3].[O-]C(=O)C([O-])=O.[O-]C(=O)C([O-])=O.[O-]C(=O)C([O-])=O,water,298,-5.315185869,mol/L,578.5540000000003,-10.5414,240.77999999999997,0.0,12.0
Cc1ccccc1Oc2ccccc2C,water,298,-4.850088023,mol/L,198.26500000000001,4.095740000000003,9.23,0.0,1.0
[O--].[O--].[O--].[Sb+3].[Sb+3],water,298,-5.023754804,mol/L,291.517,-1.118,85.5,0.0,0.0
Nc1nc(N)nc(N)n1.O=C2NC(=O)NC(=O)N2,water,298,-4.975513502,mol/L,255.19800000000004,-3.630300000000001,215.30999999999995,6.0,9.0
[Lu+3].[Lu+3].[O-]C(=O)C([O-])=O.[O-]C(=O)C([O-])=O.[O-]C(=O)C([O-])=O,water,298,-5.356796119,mol/L,613.9880000000003,-10.5414,240.77999999999997,0.0,12.0
[Zn++].[Zn++].[Zn++].[O-][P]([O-])([O-])=O.[O-][P]([O-])([O-])=O,water,298,-5.155347286,mol/L,386.1100000000001,-5.656700000000001,172.5,0.0,8.0
[O-][N+](=O)c1ccccc1c2ccc(Cl)cc2,water,298,-4.937209456,mol/L,233.654,3.9152000000000022,43.14,0.0,2.0
CCCCOC(=O)c1ccccc1C(=O)OCc2ccccc2,water,298,-5.064910086,mol/L,312.36499999999995,4.000500000000003,52.60000000000001,0.0,4.0
CC1CC2=C(CC1(C)C(C)=O)C(C)(C)CCC2,water,298,-4.941791315,mol/L,234.38299999999992,4.518300000000004,17.07,0.0,1.0
[Mo].CCCCC(CC)C([O-])=O,water,298,-3.435168605,mol/L,239.14599999999996,0.9501999999999999,40.129999999999995,0.0,2.0
Nc1cc(Cl)ccc1Oc2ccc(Cl)cc2Cl,water,298,-5.045264286,mol/L,288.56100000000004,5.021300000000001,35.25,1.0,2.0
CCCCCCOC(=O)CCCCC(=O)OCCCCCC,water,298,-5.082600349,mol/L,314.46600000000007,4.7938000000000045,52.60000000000001,0.0,4.0
[Mo].CCCCC(CC)C([O-])=O,water,298,-4.261391826,mol/L,239.14599999999996,0.9501999999999999,40.129999999999995,0.0,2.0
CCCCC(CC)COC(=O)CS[Sn](CCCC)(CCCC)SCC(=O)OCC(CC)CCCC,water,298,-5.394286712,mol/L,639.597,9.014400000000004,52.60000000000001,0.0,6.0
O=C(Nc1ccccc1)Nc2ccccc2,water,298,-4.920311611,mol/L,212.25199999999998,3.3306000000000013,41.13,2.0,1.0
CCCC[Sn](=O)CCCC,water,298,-4.989557994,mol/L,248.94199999999995,3.0086000000000013,17.07,0.0,1.0
[Sr++].Cc1c(Cl)cc(cc1[S](O)(=O)=O)N=Nc2c([O-])c(cc3ccccc23)C([O-])=O,water,298,-5.306582846,mol/L,506.4340000000003,2.5200200000000006,142.28,1.0,7.0
CC1CCC(CC2=C1CCC2C)C(C)(C)OC(C)=O,water,298,-5.022602512,mol/L,264.409,4.490800000000004,26.3,0.0,2.0
O=[Te]=O,water,298,-4.805087436,mol/L,159.59799999999998,-0.6184000000000001,34.14,0.0,2.0
CCCCC(CC)CCCCCC(C)CCCC(O)=O,water,298,-5.056117837,mol/L,284.4839999999999,6.044300000000006,37.3,1.0,1.0
CC(C)CCCC(C)CCCC(C)(O)C#C,water,298,-4.953059619,mol/L,224.38799999999998,4.003300000000003,20.23,1.0,1.0
[Gd],water,298,-4.798650645,mol/L,157.25,0.0,0.0,0.0,0.0
O=[Te]=O,water,298,-1.816885336,mol/L,159.59799999999998,-0.6184000000000001,34.14,0.0,2.0
C[C@]12CC[C@H]3[C@@H](CCC4=CC(=O)CC[C@]34C)[C@@H]1CC[C@@H]2O,water,298,-5.078024893,mol/L,288.431,3.879200000000003,37.3,1.0,2.0
FC(F)=C(F)OC(F)(F)C(F)(F)F,water,298,-4.954296793,mol/L,216.02699999999996,3.1932,9.23,0.0,1.0
C.CCCCCCCCCCCCO,water,298,-4.925960642,mol/L,202.38199999999995,4.535700000000005,20.23,1.0,1.0
CC(C)(c1cc(Br)c(O)c(Br)c1)c2cc(Br)c(O)c(Br)c2,water,298,-5.366283239,mol/L,543.875,6.4737000000000045,40.46,2.0,2.0
CCCCCCCC(=O)OCC(C)(C)COC(=O)CCCCCCC,water,298,-5.190388951,mol/L,356.54700000000025,5.8200000000000065,52.6,0.0,4.0
CC(=C)CC(C)(C)C,water,298,-4.688326948,mol/L,112.216,2.9987000000000013,0.0,0.0,0.0
CCCCC(CC)COC(=O)CS[Sn](C)(SCC(=O)OCC(CC)CCCC)SCC(=O)OCC(CC)CCCC,water,298,-5.509685712,mol/L,743.7269999999997,9.033500000000005,78.90000000000002,0.0,9.0
CC1COCc2cc3c(cc12)C(C)(C)C(C)C3(C)C,water,298,-5.050573077,mol/L,258.405,4.525200000000004,9.23,0.0,1.0
[Cd++],water,298,-4.689084839,mol/L,112.412,-0.0025,0.0,0.0,0.0
CC(=C)CC(C)(C)C.N(c1ccccc1)c2ccccc2,water,298,-5.087662615,mol/L,281.44300000000004,6.428900000000006,12.03,1.0,1.0
[Na+].[Mg++].[Al+3].[O-][Si]([O-])=O.[O-][Si]([O-])=O.[O-][Si]([O-])=O,water,298,-5.130514687,mol/L,302.526,-12.390400000000001,189.57,0.0,9.0
Nc1nc(N)nc(N)n1.O=C2NC(=O)NC(=O)N2,water,298,-5.064454586,mol/L,255.19800000000004,-3.630300000000001,215.30999999999995,6.0,9.0
CC(C)(C)OOC(C)(C)C#CC(C)(C)OOC(C)(C)C,water,298,-5.114568529,mol/L,286.412,4.0404000000000035,36.92,0.0,4.0
CCCCCCC(CCCC)C(O)=O,water,298,-4.959305967,mol/L,200.32199999999997,3.847800000000002,37.3,1.0,1.0
CCCCC(CC)COC(=O)c1ccc(N)cc1,water,298,-5.054393659,mol/L,249.35399999999998,3.642000000000002,52.32,1.0,3.0
[Ca++].CCCCCCC(O)CCCCCCCCCCC([O-])=O.CCCCCCC(O)CCCCCCCCCCC([O-])=O,water,298,-5.463097207,mol/L,639.0280000000001,7.55640000000001,120.72,2.0,6.0
[Ca++].CCCCCCCCCCCCCCCCCC([O-])=O.CCCCCCCCCCCCCCCCCC([O-])=O,water,298,-5.440787474,mol/L,607.0300000000003,9.614799999999999,80.25999999999999,0.0,4.0
CCCCOC(=O)CCC(C)(OOC(C)(C)C)OOC(C)(C)C,water,298,-5.189881345,mol/L,334.4530000000001,4.319500000000004,63.22000000000001,0.0,6.0
ClC1=C(Cl)C(=O)c2ccccc2C1=O,water,298,-5.023776406,mol/L,227.046,2.7548000000000012,34.14,0.0,2.0
[Ca++].CCCCCCC(O)CCCCCCCCCCC([O-])=O.CCCCCCC(O)CCCCCCCCCCC([O-])=O,water,298,-5.479184027,mol/L,639.0280000000001,7.55640000000001,120.72,2.0,6.0
CC1=CCC2CC1C2(C)C.CC3(C)OC4(C)CCC3CC4.CC5(C)C6CCC(C6)C5=C.CC7(C)C8CCC7(C)C(=O)C8,water,298,-5.438370605,mol/L,578.9660000000003,11.14319999999999,26.3,0.0,2.0
[Na+].COc1ccccc1NC(=O)c2cc3ccccc3cc2[O-],water,298,-5.176510186,mol/L,315.30400000000003,0.17830000000000035,61.39,1.0,3.0
O=[Cd],water,298,-4.786382933,mol/L,128.411,-0.1213,17.07,0.0,1.0
O=[P](Oc1ccccc1)(Oc2ccccc2)Oc3ccccc3,water,298,-5.191381807,mol/L,326.288,5.331500000000003,44.760000000000005,0.0,4.0
CC(c1ccccc1)c2ccccc2,water,298,-4.942642328,mol/L,182.266,3.8384000000000027,0.0,0.0,0.0
Clc1ccccc1C(Cl)(Cl)Cl,water,298,-5.043933097,mol/L,229.921,4.1667000000000005,0.0,0.0,0.0
CCCCCCCCCCOC(C)=O,water,298,-4.985758302,mol/L,200.32199999999997,3.6902000000000026,26.3,0.0,2.0
[Cu+].[S-]C#N,water,298,-4.777548239,mol/L,121.631,0.01188,23.79,0.0,2.0
CN(CCOC(=O)C=C)[S](=O)(=O)C(F)(F)C(F)(F)C(F)(F)C(F)(F)F,water,298,-5.308746093,mol/L,411.24199999999996,2.4029000000000007,63.68,0.0,4.0
COC(=O)C(=O)c1ccccc1,water,298,-4.909915974,mol/L,164.16,1.0423,43.370000000000005,0.0,3.0
CCCCC(C#N)c1ccccc1,water,298,-3.662354453,mol/L,173.25900000000001,3.4839800000000025,23.79,0.0,1.0
FC(F)(F)C(Cl)(Cl)Cl,water,298,-4.333192393,mol/L,187.37500000000003,2.9189,0.0,0.0,0.0
CC(C)CCCCCCCCCCO,water,298,-5.000794033,mol/L,200.36599999999996,4.145600000000004,20.23,1.0,1.0
CCC(C)C(C)C(C)CCc1ccc(O)cc1,water,298,-5.068896113,mol/L,234.38299999999998,4.643100000000005,20.23,1.0,1.0
CCOc1ccccc1NC(=O)c2cc3ccccc3cc2O,water,298,-5.186601809,mol/L,307.34900000000005,4.196400000000003,58.56,2.0,3.0
[Ba++].Cc1cc(N\N=C\2C(=O)C=Cc3ccccc23)c(cc1Cl)[S]([O-])(=O)=O.Cc4cc(N\N=C\5C(=O)C=Cc6ccccc56)c(cc4Cl)[S]([O-])(=O)=O,water,298,-5.647849293,mol/L,888.954,5.548440000000005,197.32,2.0,12.0
[CaH2].O=[Zr],water,298,-4.87307926,mol/L,149.317,-1.0375,17.07,0.0,1.0
CC(C)OC(=O)CCCCCCCCC(=O)OC(C)C,water,298,-5.155961214,mol/L,286.412,4.010400000000003,52.60000000000001,0.0,4.0
CCCCCCOC(=O)c1ccccc1O,water,298,-5.045878208,mol/L,222.28400000000002,3.129300000000002,46.53,1.0,3.0
CCCCCCC(O)CCCCCCCCCCCO,water,298,-5.156094631,mol/L,286.4999999999999,5.211000000000006,40.46,2.0,2.0
ClC1=C(Cl)C(=O)C(=C(Cl)C1=O)Cl,water,298,-5.089686144,mol/L,245.87599999999998,2.5166,34.14,0.0,2.0
NC(=O)c1ccccc1O,water,298,-1.840492621,mol/L,137.13799999999998,0.49110000000000004,63.32000000000001,2.0,2.0
[K+].CCCCCCCCCCCCCCCCO[P](O)([O-])=O,water,298,-3.260259354,mol/L,360.51599999999996,1.9489999999999985,69.59,1.0,3.0
CCN(CCCl)c1ccc(C=O)cc1,water,298,-3.033448375,mol/L,211.69200000000004,2.5642000000000005,20.310000000000002,0.0,2.0
C[C@]12CC[C@H]3[C@@H](CCC4=CC(=O)CC[C@H]34)[C@@H]1CCC2=O,water,298,-3.14612102,mol/L,272.388,3.697300000000002,34.14,0.0,2.0
CCC(=O)OCCC(C)C,water,298,-2.870073641,mol/L,144.21399999999997,1.9857,26.3,0.0,2.0
CC(=C)[C@@H]1C[C@@H](CC[C@@]1(C)C=C)C(C)(C)O,water,298,-3.059278372,mol/L,222.37199999999999,3.9420000000000033,20.23,1.0,1.0
[OH-].[Cr+3].CCCCC(CC)COCCCN.CC(=O)\C(=N/Nc1cc(cc(c1[O-])[S]([O-])(=O)=O)[N+]([O-])=O)C(=O)[N-]c2ccccc2.[H+],water,298,-3.542587387,mol/L,676.6890000000002,3.6628000000000016,261.28,2.0,13.0
CCCCCC(O)C=C,water,298,-1.821931715,mol/L,128.21499999999997,2.1136,20.23,1.0,1.0
FC(F)=C(F)C(F)(F)F,water,298,-2.888798283,mol/L,150.021,2.6263,0.0,0.0,0.0
CC=C(C)C,water,298,-2.560377492,mol/L,70.13499999999999,1.9725,0.0,0.0,0.0
[Cu],water,298,-2.519719137,mol/L,63.546,-0.0025,0.0,0.0,0.0
CC[C@]12CC[C@H]3[C@@H](CCc4cc(OC)ccc34)[C@@H]1CC[C@@H]2O,water,298,-4.875700653,mol/L,300.44200000000006,4.302300000000004,29.46,1.0,2.0
CC(C)(C1CCC(O)CC1)C2CCC(O)CC2,water,298,-3.097609749,mol/L,240.38699999999994,3.1148000000000016,40.46,2.0,2.0
COCCOCCO[Si](CCCOCC1CO1)(OCCOCCOC)OCCOCCOC,water,298,1.582313338,mol/L,500.65800000000047,0.7696000000000052,104.83000000000003,0.0,11.0
CCNc1nc(NC(C)C)nc(SC)n1,water,298,-3.075636757,mol/L,227.337,1.8455999999999997,62.730000000000004,2.0,6.0
C[C@]12CC[C@H]3[C@@H](CCC4=CC(=O)CC[C@H]34)[C@@H]1CCC2=O,water,298,-3.154154604,mol/L,272.388,3.697300000000002,34.14,0.0,2.0
OC(=O)c1ccccc1C(O)=O,water,298,-0.941699693,mol/L,166.13199999999998,1.083,74.6,2.0,2.0
[Na+].[Na+].[O-][S](=O)(=O)c1ccc(N\N=C2\C(=O)C=Cc3cc(ccc23)[S]([O-])(=O)=O)cc1,water,298,-1.376746915,mol/L,452.3770000000002,-5.0850999999999935,155.85999999999999,1.0,9.0
CC(F)(F)Cl,water,298,-1.723390854,mol/L,100.495,1.8379,0.0,0.0,0.0
COC(=O)c1cc(cc(c1)[N+]([O-])=O)C(O)=O,water,298,-2.073729924,mol/L,225.15599999999998,1.0796,106.74000000000001,1.0,5.0
FCF,water,298,-1.437441792,mol/L,52.022999999999996,0.8829,0.0,0.0,0.0
CC(CN\C=C/1C=CC=CC1=O)N\C=C/2C=CC=CC2=O,water,298,-3.172023424,mol/L,282.343,1.7121,58.2,2.0,4.0
[Mg++].CCCCCCCCCc1cc2ccccc2c(c1CCCCCCCCC)[S]([O-])(=O)=O.CCCCCCCCCc3cc4ccccc4c(c3CCCCCCCCC)[S]([O-])(=O)=O,water,298,-4.674472917,mol/L,943.7369999999994,16.279399999999963,114.39999999999998,0.0,6.0
CC1(C)[C@H]2CC[C@]1(C)C(C2)OC(=O)C=C,water,298,-4.022026165,mol/L,208.30099999999996,2.9304000000000014,26.3,0.0,2.0
CC(C)Oc1ccc(cc1)[S](=O)(=O)c2ccc(O)cc2,water,298,-4.171445785,mol/L,292.356,3.0122000000000018,63.60000000000001,1.0,4.0