Solute,Solvent,Temperature_K,Solubility,Units,MW,LogP,TPSA,HBD,HBA
Cc1ccc(Nc2cc(C(O)=O)c(Nc3ccc(C)cc3)cc2C(O)=O)cc1,water,298,-5.070513482,mol/L,376.4120000000001,5.187040000000003,98.66,4.0,4.0
[Lu+3].[Lu+3].[O-]C(=O)C([O-])=O.[O-]C(=O)C([O-])=O.[O-]C(=O)C([O-])=O,water,298,-5.283009905,mol/L,613.9880000000003,-10.5414,240.77999999999997,0.0,12.0
COc1cc(NC(=O)c2cc3ccccc3cc2O)c(OC)cc1Cl,water,298,-5.062270146,mol/L,357.7930000000001,4.468300000000003,67.79,2.0,4.0
CCCCC(CC)COC(=O)C(C)=C,water,298,-4.805974161,mol/L,198.30599999999995,3.3221000000000016,26.3,0.0,2.0
CCCCC(CC)CCl,water,298,-4.680882096,mol/L,148.677,3.441600000000002,0.0,0.0,0.0
NC(=O)c1ccc(NC(=O)c2ccc(N)cc2)cc1,water,298,-4.915649994,mol/L,255.277,1.6199999999999999,98.21,3.0,3.0
C.CCCCCCCCCCCCO,water,298,-4.81481019,mol/L,202.38199999999995,4.535700000000005,20.23,1.0,1.0
[O--].[O--].[O--].[Gd+3].[Gd+3],water,298,-5.067942723,mol/L,362.497,-0.3564,85.5,0.0,0.0
[Lu+3].[Lu+3].[O-]C(=O)C([O-])=O.[O-]C(=O)C([O-])=O.[O-]C(=O)C([O-])=O,water,298,-5.296798189,mol/L,613.9880000000003,-10.5414,240.77999999999997,0.0,12.0
C=CC(=O)OCCCCCCCCCCOC(=O)C=C,water,298,-4.960875455,mol/L,282.37999999999994,3.5656000000000025,52.6,0.0,4.0
C[C@H]1CC(=O)C[C@@H]2CC[C@H]3[C@@H]4CC[C@H](O)[C@@]4(C)CC[C@@H]3[C@@]12C,water,298,-5.006428958,mol/L,304.47400000000005,4.205100000000003,37.3,1.0,2.0
CC1(C)CC2(CC(C)(C)N1)OC3(CCCCCCCCCCC3)NC2=O,water,298,-5.084664439,mol/L,364.5740000000001,4.813200000000005,50.36,2.0,3.0
CCC(C)(C)c1ccc(O)c(c1)C(C)(C)CC,water,298,-4.892804854,mol/L,234.38299999999995,4.767400000000005,20.23,1.0,1.0
COc1ccc(c(O)c1)C(=O)c2ccccc2,water,298,-4.881283823,mol/L,228.24699999999999,2.6318,46.53,1.0,3.0
CCCCC(CC)COC(=O)CS[Sn](C)(SCC(=O)OCC(CC)CCCC)SCC(=O)OCC(CC)CCCC,water,298,-5.394292294,mol/L,743.7269999999997,9.033500000000005,78.90000000000002,0.0,9.0
C1CCC\C=C/CC1,water,298,-4.56506034,mol/L,110.19999999999999,2.8968000000000016,0.0,0.0,0.0
ClC(=O)OCCOCCOC(Cl)=O,water,298,-4.886549003,mol/L,231.03099999999998,1.7538,61.830000000000005,0.0,5.0
[Lu+3].[Lu+3].[O-]C(=O)C([O-])=O.[O-]C(=O)C([O-])=O.[O-]C(=O)C([O-])=O,water,298,-5.311038629,mol/L,613.9880000000003,-10.5414,240.77999999999997,0.0,12.0
OCc1cccc(Oc2ccccc2)c1,water,298,-2.825873142,mol/L,200.23700000000002,2.9712000000000005,29.46,1.0,2.0
N#CCN(CCN(CC#N)CC#N)CC#N,water,298,-2.859280911,mol/L,216.24799999999996,-0.31528,101.63999999999999,0.0,6.0
O=C1CCCCCCCCCCCN1,water,298,-2.81950432,mol/L,197.32199999999997,3.0172000000000008,29.1,1.0,1.0
COC(=O)\C=C\c1ccccc1,water,298,-2.73434753,mol/L,162.188,1.8728,26.3,0.0,2.0
CSc1cc(SC)c(N)c(C)c1N,water,298,-2.856925458,mol/L,214.35899999999995,2.6032200000000003,52.04,2.0,4.0
CC(C)(c1ccc(O)cc1)c2ccc(O)cc2,water,298,-2.884272526,mol/L,228.291,3.423700000000002,40.46,2.0,2.0
CCC(C)CO,water,298,-0.472465867,mol/L,88.14999999999999,1.0248,20.23,1.0,1.0
COc1ccc(\C=C\C)cc1OC,water,298,-2.778226795,mol/L,178.23099999999997,2.736900000000001,18.46,0.0,2.0
Cc1ccc2cccc(O)c2n1,water,298,-1.730618615,mol/L,159.188,2.2488200000000007,33.120000000000005,1.0,2.0
NC(=O)c1ccccc1O,water,298,-1.6658661,mol/L,137.13799999999998,0.49110000000000004,63.32000000000001,2.0,2.0
S=C=S,water,298,-1.413294061,mol/L,76.14500000000001,1.0181,0.0,0.0,2.0
[Co++].CCC1CCC(CCC([O-])=O)C1.CCC2CCC(CCC([O-])=O)C2,water,298,-3.132383191,mol/L,397.4210000000002,2.6831000000000005,80.25999999999999,0.0,4.0
CC(C)(COCCCOC(=O)C=C)COCCCOC(=O)C=C,water,298,-3.04954214,mol/L,328.4050000000001,2.2844000000000007,71.06,0.0,6.0
CCCCCOC=O,water,298,-1.602059991,mol/L,116.15999999999998,1.3496,26.3,0.0,2.0
COC(=O)c1cccc(c1)C(=O)OC,water,298,-2.825819918,mol/L,194.18599999999998,1.2597999999999998,52.60000000000001,0.0,4.0
C=Cc1ccccc1,water,298,-2.555269616,mol/L,104.15199999999997,2.3296,0.0,0.0,0.0
CCCCCCOC(=O)C(C)=C,water,298,-3.755421034,mol/L,170.25199999999998,2.686000000000001,26.3,0.0,2.0
Clc1cc(Cl)c(Cl)nc1Cl,water,298,-3.861424691,mol/L,216.882,3.6952,12.89,0.0,1.0
COC(=O)CCCCCCCCC(=O)OC1CC(C)(C)N(C)C(C)(C)C1.CN2C(C)(C)CC(CC2(C)C)OC(=O)CCCCCCCCC(=O)OC3CC(C)(C)N(C)C(C)(C)C3,water,298,-4.46944343,mol/L,878.3339999999994,10.971199999999994,114.92000000000002,0.0,11.0
Nc1scc(n1)c2ccc3ccccc3c2,water,298,-4.849542252,mol/L,226.304,3.5455000000000014,38.91,1.0,3.0
CCCCCC(CO)Cc1ccccc1,water,298,-3.843268562,mol/L,206.329,3.417900000000002,20.23,1.0,1.0
CCC(C)c1ccccc1,water,298,-3.65800169,mol/L,134.22199999999998,3.2001000000000017,0.0,0.0,0.0
CCCCCCCCCC=O,water,298,-3.725525503,mol/L,156.269,3.3260000000000023,17.07,0.0,1.0
N(c1ccccc1)c2ccccc2,water,298,-3.764576667,mol/L,169.227,3.430200000000002,12.03,1.0,1.0
CC(=O)OC/C=C(C)/CCC=C(C)C,water,298,-3.830500177,mol/L,196.29,3.242200000000002,26.3,0.0,2.0
CN(C)C(=O)Nc1ccc(Cl)c(Cl)c1,water,298,-3.905140549,mol/L,233.09799999999998,3.0869000000000018,32.34,1.0,1.0
CC(CC/C=C(C)/CCC=O)C=C,water,298,-3.79357605,mol/L,180.291,3.5141000000000027,17.07,0.0,1.0
COC(=O)C(F)(F)F,water,298,-0.647983703,mol/L,128.049,0.7216999999999999,26.3,0.0,2.0
CC1=CC[C@@H](CC1)C(C)(C)O,water,298,-1.730351723,mol/L,154.25300000000001,2.5037000000000007,20.23,1.0,1.0
CCOc1cc(C=O)ccc1O,water,298,-1.764202268,mol/L,166.176,1.6034,46.53,1.0,3.0
COC(=O)\C=C\c1ccccc1,water,298,-2.753652685,mol/L,162.188,1.8728,26.3,0.0,2.0
CC(=O)CCc1ccccc1,water,298,-1.716017996,mol/L,148.20499999999998,2.2081999999999997,17.07,0.0,1.0
COc1cc(NC(=O)CC(C)=O)c(OC)cc1Cl,water,298,-2.979244778,mol/L,271.7,2.2748,64.63,1.0,4.0
CC(=O)OC\C=C\c1ccccc1,water,298,-2.792724534,mol/L,176.215,2.2629,26.3,0.0,2.0
C=CCOc1nc(OCC=C)nc(OCC=C)n1,water,298,-2.943351674,mol/L,249.26999999999998,1.5659999999999998,66.36,0.0,6.0
CCOc1cc(C=O)ccc1O,water,298,-1.770319193,mol/L,166.176,1.6034,46.53,1.0,3.0
CC(=O)Oc1ccc(cc1C2C(=O)Oc3ccc(cc23)C(C)(C)CC(C)(C)C)C(C)(C)CC(C)(C)C,water,298,-6.692582562,mol/L,492.70000000000044,8.090400000000008,52.60000000000001,0.0,4.0
C,water,298,-1.755036475,mol/L,16.043,0.6361,0.0,0.0,0.0
CCCCC(CC)COC(=O)Nc1ccc(C)c(NC(=O)OCCN(C)C)c1.CC(O)C(O)=O,water,298,-0.235193825,mol/L,483.6060000000003,4.321820000000003,137.43,4.0,7.0
CCCC(=O)OCc1ccccc1,water,298,-2.800757237,mol/L,178.231,2.5299000000000005,26.3,0.0,2.0
CCC(C)CCCC(C)(C)O,water,298,-2.749344685,mol/L,158.285,2.9737000000000022,20.23,1.0,1.0
[Na+].ClN1C(=O)[N-]C(=O)N(Cl)C1=O,water,298,-0.895160011,mol/L,219.947,-4.6648000000000005,75.17,0.0,5.0
CC(F)F,water,298,-1.372714791,mol/L,66.05,1.2714,0.0,0.0,0.0
CC(Cl)CCl,water,298,-1.605870446,mol/L,112.98700000000001,1.8525,0.0,0.0,0.0
Nc1cc(ccc1O)[S](O)(=O)=O,water,298,-1.829744737,mol/L,189.19199999999998,0.22109999999999996,100.62,3.0,4.0
C[C@]12CCC(=O)C=C1CC[C@H]3[C@@H]4CC[C@](O)(C(=O)CO)[C@@]4(C)C[C@H](O)[C@H]23,water,298,-3.112109244,mol/L,362.4660000000001,1.7815999999999999,94.83,3.0,5.0
CC(=O)OCC(=O)[C@@]1(O)CC[C@H]2[C@@H]3CCC4=CC(=O)CC[C@]4(C)[C@H]3[C@@H](O)C[C@]12C,water,298,-3.159763716,mol/L,404.5030000000002,2.3524000000000003,100.90000000000002,2.0,6.0
CCCCCCCC/C=C/CCCCCCCC(O)=O.NCCO,water,298,-3.08883445,mol/L,343.552,5.045900000000004,83.55,3.0,3.0
CCCCOCCOCCOCc1cc2OCOc2cc1CCC,water,298,-4.068588977,mol/L,338.44400000000013,3.7177000000000024,46.150000000000006,0.0,5.0
CN(C)C(=O)Nc1ccc(Cl)c(Cl)c1,water,298,-3.90814606,mol/L,233.09799999999998,3.0869000000000018,32.34,1.0,1.0
[O--].[O--].[O--].[Sb+3].[Sb+3],water,298,-4.006781989,mol/L,291.517,-1.118,85.5,0.0,0.0
CN(C)C(=O)Nc1ccc(Cl)c(Cl)c1,water,298,-3.912693687,mol/L,233.09799999999998,3.0869000000000018,32.34,1.0,1.0
CC(CO)CCC1CC=C(C)C1(C)C,water,298,-3.842746406,mol/L,196.33399999999997,3.387400000000002,20.23,1.0,1.0
CC(C)CCCCCCCO,water,298,-3.750733441,mol/L,158.285,2.975300000000002,20.23,1.0,1.0
[Ca++].CCCCCCC(O)CCCCCCCCCCC([O-])=O.CCCCCCC(O)CCCCCCCCCCC([O-])=O,water,298,-4.356813568,mol/L,639.0280000000001,7.55640000000001,120.72,2.0,6.0
CCCCCCCCCCCC(=O)N(C)C,water,298,-3.909307051,mol/L,227.39199999999997,3.9955000000000034,20.310000000000002,0.0,1.0
CC(C)(C)C1CCC(O)CC1,water,298,-3.103262125,mol/L,156.26899999999995,2.5836000000000006,20.23,1.0,1.0
CC(C)(C)C1CCC(O)CC1,water,298,-3.168157449,mol/L,156.26899999999995,2.5836000000000006,20.23,1.0,1.0
CCCCCCCCCCCCCCN(C)C,water,298,-3.935692561,mol/L,241.46299999999994,5.249100000000005,3.24,0.0,1.0
CCCS[P](=O)(OCC)Oc1ccc(Br)cc1Cl,water,298,-4.125290683,mol/L,373.63599999999997,5.7691000000000034,35.53,0.0,4.0
COC(=O)COc1nc(F)c(Cl)c(N)c1Cl,water,298,-3.982689492,mol/L,269.05899999999997,1.6615,74.44,1.0,5.0
Oc1ccc(cc1[N+]([O-])=O)[N+]([O-])=O,water,298,-1.819466098,mol/L,184.107,1.2086000000000003,106.50999999999999,1.0,5.0
CCCCl,water,298,-1.45340682,mol/L,78.542,1.6352,0.0,0.0,0.0
[Zn++].CC(C)CC(C)O[P]([S-])(=S)OC(C)C.CC(C)CC(C)O[P]([S-])(=S)OC(C)C,water,298,-2.318974913,mol/L,576.1200000000001,7.265500000000007,36.92,0.0,8.0
[O-][N+](=O)c1cccc(Cl)c1,water,298,-2.7612723,mol/L,157.55599999999998,2.2482000000000006,43.14,0.0,2.0
CC(=O)c1ccc2ccccc2c1,water,298,-2.796418719,mol/L,170.21099999999998,3.0424000000000015,17.07,0.0,1.0
[Na+].[Na+].Nc1ccc(N=Nc2ccc(N[S](=O)(=O)c3ccc(cc3)N=Nc4c(O)c5c(N)c(N=Nc6ccc(cc6)[N+]([O-])=O)c(cc5cc4[S]([O-])(=O)=O)[S]([O-])(=O)=O)cc2)c(N)c1,water,298,-0.525678621,mol/L,905.8210000000003,1.063400000000003,376.15999999999997,5.0,20.0
Nc1cccc(O)c1,water,298,-0.606572432,mol/L,109.12799999999999,0.9743999999999999,46.25,2.0,2.0
CC(Cl)CCl,water,298,-1.621664713,mol/L,112.98700000000001,1.8525,0.0,0.0,0.0
CCCCl,water,298,-1.463738192,mol/L,78.542,1.6352,0.0,0.0,0.0
CCNc1ccccc1,water,298,-1.652077936,mol/L,121.18299999999995,2.1184,12.03,1.0,1.0
CC(C)CCOCCC(C)C,water,298,-3.760107067,mol/L,158.285,3.095200000000002,9.23,0.0,1.0
[Na+].CN(c1ccccc1)[S](=O)(=O)C2=CC(=O)C3=C(NNc4ccc(NC(=O)CCl)cc4[S]([O-])(=O)=O)C(=N)C=CC3=C2,water,298,-4.35885707,mol/L,626.0480000000001,-0.6086299999999971,188.66,4.0,10.0
Cc1ccc(Cl)c(Cl)c1,water,298,-3.775545726,mol/L,161.031,3.301820000000001,0.0,0.0,0.0
COc1cc(c(OC)cc1N)[S](=O)(=O)Nc2ccccc2,water,298,-4.057692864,mol/L,308.359,2.0868,90.65,2.0,5.0
Nc1ccc(\C=C\c2ccc(N)cc2[S](O)(=O)=O)c(c1)[S](O)(=O)=O,water,298,-4.137316594,mol/L,370.4080000000001,1.5148000000000006,160.78,4.0,6.0
CC(C)CCO,water,298,-0.518711055,mol/L,88.14999999999999,1.0248,20.23,1.0,1.0
CC(=O)CC(c1ccccc1)C2=C(O)Oc3ccccc3C2=O,water,298,-3.062508747,mol/L,308.333,3.609600000000002,67.50999999999999,1.0,4.0
[H+].[Cl-].CC1=CC(C=CC1=N)=C(c2ccc(N)cc2)c3ccc(N)cc3,water,298,-2.105483191,mol/L,337.85400000000004,1.3052699999999988,75.89,3.0,3.0
Cc1ccc(N)cc1Cl,water,298,-1.727820447,mol/L,141.601,2.23062,26.02,1.0,1.0
CC(C)CO[P](=O)(OCC(C)C)OCC(C)C,water,298,-3.002154647,mol/L,266.318,4.112300000000004,44.760000000000005,0.0,4.0
CC(C)CC(=O)CC(C)C,water,298,-1.731423923,mol/L,142.242,2.6477000000000013,17.07,0.0,1.0
CC(C)(C)C1CCC(O)CC1,water,298,-2.772268906,mol/L,156.26899999999995,2.5836000000000006,20.23,1.0,1.0
COC(=O)c1ccccc1C,water,298,-1.756647676,mol/L,150.17699999999996,1.78162,26.3,0.0,2.0
CC(C)=C,water,298,-2.32906904,mol/L,56.108,1.5824,0.0,0.0,0.0
CC(=O)OC[C@@H](OC(C)=O)C=C,water,298,-0.817681412,mol/L,172.17999999999998,0.6672,52.6,0.0,4.0
Nc1cccc(O)c1,water,298,-0.622962848,mol/L,109.12799999999999,0.9743999999999999,46.25,2.0,2.0
S=C1Nc2ccccc2N1,water,298,-1.761713933,mol/L,150.206,2.2254899999999997,31.58,2.0,1.0
CC(C)CO[P](=O)(OCC(C)C)OCC(C)C,water,298,-3.010427173,mol/L,266.318,4.112300000000004,44.760000000000005,0.0,4.0
CCCc1nc(C)c2n1NC(=NC2=O)c3cc(ccc3OCC)[S](=O)(=O)N4CCN(CC)CC4,water,298,-4.843867866,mol/L,488.61400000000043,2.0704199999999995,112.89999999999998,1.0,8.0
CCCCCCCC/C=C/CCCCCCCC(=O)NCCCN(C)C,water,298,-4.149259389,mol/L,366.63400000000007,6.091800000000006,32.34,1.0,2.0
Cc1c(Cl)cccc1Cl,water,298,-3.791936142,mol/L,161.03099999999998,3.301820000000001,0.0,0.0,0.0
O=C1CCCCCCCCCCC1,water,298,-3.845829997,mol/L,182.30699999999996,3.8602000000000034,17.07,0.0,1.0
CC(C)=CCCC(C)(O)C#C,water,298,-1.772080431,mol/L,152.237,2.117,20.23,1.0,1.0
Cc1ccc(cc1[N+]([O-])=O)C(O)=O,water,298,-2.848098023,mol/L,181.147,1.60142,80.44,1.0,3.0
COc1ccc(cc1N)[S](O)(=O)=O,water,298,-0.899724345,mol/L,203.219,0.5241,89.62,2.0,4.0
CCCCOCCOCCOC(=O)C(C)=C,water,298,-1.954061516,mol/L,230.30399999999995,1.9389999999999998,44.760000000000005,0.0,4.0
Oc1ccc(cc1O)C(=O)c2ccccc2,water,298,-2.92262005,mol/L,214.22,2.3288,57.53,2.0,3.0
CCN(CCO)c1ccc(cc1)N=Nc2sc3cc(OC)ccc3[n+]2C.CC([O-])=O,water,298,-0.226272691,mol/L,430.5300000000002,2.7246000000000015,101.43,1.0,8.0
[Co++].CCCCC(CC)C([O-])=O.CCCCC(CC)C([O-])=O,water,298,-1.139445442,mol/L,345.34500000000014,1.9028999999999998,80.25999999999999,0.0,4.0
CCCCC(O)=O,water,298,-0.61122608,mol/L,102.13299999999998,1.2612,37.3,1.0,1.0
CCCC1C[C@](C)(CCO1)OC(C)=O.CCCC2C[C@@](C)(CCO2)OC(C)=O,water,298,-2.204723233,mol/L,400.55600000000027,4.574600000000005,71.06,0.0,6.0
CCCBr,water,298,-1.691940386,mol/L,122.993,1.7913000000000001,0.0,0.0,0.0
CCCCC(CC)CN,water,298,-1.713480463,mol/L,129.24699999999999,2.1615,26.02,1.0,1.0
Cc1ccc(N)cc1Cl,water,298,-1.753126312,mol/L,141.601,2.23062,26.02,1.0,1.0
Oc1ccc(c(O)c1)C2=C(O)C(=O)c3c(O)cc(O)cc3O2,water,298,-3.082409058,mol/L,302.238,1.9879999999999998,131.36,5.0,7.0
N(c1ccccc1)c2ccccc2,water,298,-3.81684995,mol/L,169.227,3.430200000000002,12.03,1.0,1.0
S=C(Nc1ccccc1)Nc2ccccc2,water,298,-3.949456586,mol/L,228.32000000000002,3.4955000000000016,24.06,2.0,1.0
[O--].[O--].[O--].[Sb+3].[Sb+3],water,298,-4.056423921,mol/L,291.517,-1.118,85.5,0.0,0.0
N(c1ccccc1)c2ccccc2,water,298,-3.825349134,mol/L,169.227,3.430200000000002,12.03,1.0,1.0
CC(c1ccc(O)cc1)(c2ccc(O)cc2)c3ccc(O)cc3,water,298,-4.086559757,mol/L,306.36100000000005,4.157700000000002,60.69,3.0,3.0
[K].CCCCCCCCCCCCCCCCCC.O[P](O)(O)=O,water,298,-4.194201704,mol/L,391.594,5.958400000000009,77.75999999999999,3.0,1.0
Cc1ccc(Cl)cc1Cl,water,298,-3.808969481,mol/L,161.031,3.301820000000001,0.0,0.0,0.0
COC1OC(CO[S](=O)(=O)c2ccc(C)cc2)C3OC(C)(C)OC13,water,298,-4.156442533,mol/L,358.4120000000001,1.59172,80.29,0.0,7.0
COc1ccccc1C,water,298,-2.689083393,mol/L,122.16699999999997,2.0036199999999997,9.23,0.0,1.0
Nc1ccc(c(N)c1)[N+]([O-])=O,water,298,-0.789765086,mol/L,153.14100000000002,0.7592000000000001,95.18,2.0,4.0
OC(=O)Cc1ccc(Cl)cc1Cl,water,298,-2.91914164,mol/L,205.04,2.6205000000000007,37.3,1.0,1.0
CC(C)(c1ccc(O)cc1)c2ccc(O)cc2.ClCC3CO3,water,298,-5.029134765,mol/L,320.81600000000014,4.0477000000000025,52.99,2.0,3.0
C=CCOc1nc(OCC=C)nc(OCC=C)n1,water,298,-3.00397306,mol/L,249.26999999999998,1.5659999999999998,66.36,0.0,6.0
[Zr+4].CCC([O-])=O,water,298,-2.823279191,mol/L,164.295,-0.8562000000000001,40.129999999999995,0.0,2.0
CCCBr,water,298,-1.70071431,mol/L,122.993,1.7913000000000001,0.0,0.0,0.0
Clc1ccc(cc1)C#N,water,298,-2.749354496,mol/L,137.56899999999996,2.2116799999999994,23.79,0.0,1.0
CCCCOC(N)=O,water,298,-0.680456015,mol/L,117.148,0.8818000000000001,52.32,1.0,2.0
NC(=O)c1ccccc1O,water,298,-1.749767985,mol/L,137.13799999999998,0.49110000000000004,63.32000000000001,2.0,2.0
O=C1NSc2ccccc12,water,298,-1.792489366,mol/L,151.18999999999997,1.5896,32.86,1.0,2.0
Nc1ccccc1.C=O,water,298,-1.899476391,mol/L,123.15499999999999,1.0839,43.09,1.0,2.0
[O-][N+](=O)c1ccc(Cl)cc1,water,298,-2.811828673,mol/L,157.55599999999998,2.2481999999999998,43.14,0.0,2.0
CC(C)c1ccc(C=O)cc1,water,298,-2.785256582,mol/L,148.20499999999998,2.6225000000000014,17.07,0.0,1.0
CC(=C)C(=O)OCCCCOC(=O)C(C)=C,water,298,-2.969024542,mol/L,226.27199999999996,2.0052,52.6,0.0,4.0
CCNc1ccccc1,water,298,-1.701424657,mol/L,121.18299999999995,2.1184,12.03,1.0,1.0
NC(=O)c1ccccc1O,water,298,-1.755140769,mol/L,137.13799999999998,0.49110000000000004,63.32000000000001,2.0,2.0
CCCCC(O)=O,water,298,-0.628954847,mol/L,102.13299999999998,1.2612,37.3,1.0,1.0
CCC(=O)c1cccc(Cl)c1,water,298,-1.84670557,mol/L,168.623,2.9327000000000014,17.07,0.0,1.0
C1OC1COc2ccccc2,water,298,-1.796392183,mol/L,150.177,1.4641999999999997,21.759999999999998,0.0,2.0
OC(=O)CCCCCCCC(O)=O,water,298,-1.894461449,mol/L,188.22299999999998,1.8863,74.6,2.0,2.0
O=C1CCCCCCCCCCOCCCCO1,water,298,-4.0179592,mol/L,256.3859999999999,3.850900000000003,35.53,0.0,3.0
Nc1nc(N)nc(Nc2nc(N)nc(N)n2)n1,water,298,-3.98229893,mol/L,235.215,-1.8710000000000013,193.45,5.0,11.0
CC(C)C,water,298,-3.376965668,mol/L,58.123999999999995,1.6622999999999999,0.0,0.0,0.0
CC(C)CCCC(C)CC=O,water,298,-3.806483007,mol/L,156.269,3.0378000000000016,17.07,0.0,1.0
N(c1ccccc1)c2ccccc2,water,298,-3.841079829,mol/L,169.227,3.430200000000002,12.03,1.0,1.0
CCCC,water,298,-3.376965668,mol/L,58.123999999999995,1.8064,0.0,0.0,0.0
CC,water,298,-3.090743602,mol/L,30.07,1.0262,0.0,0.0,0.0
C,water,298,-2.817895757,mol/L,16.043,0.6361,0.0,0.0,0.0
CCC,water,298,-3.257019218,mol/L,44.096999999999994,1.4163,0.0,0.0,0.0
S=C(Nc1ccccc1)Nc2ccccc2,water,298,-3.971688427,mol/L,228.32000000000002,3.4955000000000016,24.06,2.0,1.0
C[C@]12CC[C@H]3[C@@H](CCC4=C3CCC(=O)C4)[C@@H]1CCC2=O,water,298,-4.054976729,mol/L,272.388,3.841400000000003,34.14,0.0,2.0
CCCBr,water,298,-1.710756249,mol/L,122.993,1.7913000000000001,0.0,0.0,0.0
COc1ccc(Cl)cc1,water,298,-2.779325494,mol/L,142.585,2.3486000000000002,9.23,0.0,1.0
C[C@@H]1C[C@H]2[C@@H]3C[C@H](F)C4=CC(=O)C=C[C@]4(C)[C@H]3[C@@H](O)C[C@]2(C)[C@H]1C(=O)CO,water,298,-3.203737155,mol/L,376.4680000000002,2.6367000000000016,74.6,2.0,4.0
[Na+].[O-][S](=O)(=O)c1cccc(c1)N=Nc2ccc(Nc3ccccc3)cc2,water,298,-1.204686091,mol/L,375.38500000000005,1.7537000000000005,93.95,1.0,6.0
CNC(=O)N(c1ccccc1)c2ccccc2,water,298,-2.983946158,mol/L,226.27900000000002,3.1641000000000012,32.34,1.0,1.0
Nc1ccccc1c2ccccc2,water,298,-2.861113735,mol/L,169.227,2.9358000000000013,26.02,1.0,1.0
ClCCO[P](=O)(OCCCl)OCC(CCl)(CCl)CO[P](=O)(OCCCl)OCCCl,water,298,-3.400175355,mol/L,582.993,5.721400000000005,89.52000000000001,0.0,8.0
OC(=O)C1CCC(CC1)C(O)=O,water,298,-0.872370724,mol/L,172.18,0.9620000000000002,74.6,2.0,2.0
CCCBr,water,298,-1.7268328,mol/L,122.993,1.7913000000000001,0.0,0.0,0.0
CCCBr,water,298,-1.727209465,mol/L,122.993,1.7913000000000001,0.0,0.0,0.0
CCc1cccc2c(CCO)c[nH]c12,water,298,-1.91532641,mol/L,189.25799999999998,2.2650999999999994,36.019999999999996,2.0,1.0
Cc1cc(Cl)ccc1O,water,298,-1.792346004,mol/L,142.585,2.3540200000000007,20.23,1.0,1.0
S=C=S,water,298,-1.519913555,mol/L,76.14500000000001,1.0181,0.0,0.0,2.0
S=C(Nc1ccccc1)Nc2ccccc2,water,298,-3.979238438,mol/L,228.32000000000002,3.4955000000000016,24.06,2.0,1.0
CCOC(C)OC(C)(CCC=C(C)C)C=C,water,298,-3.976401784,mol/L,226.35999999999996,4.0766000000000036,18.46,0.0,2.0
[Cu+].[S-]C#N,water,298,-3.706646376,mol/L,121.631,0.01188,23.79,0.0,2.0
O=C(c1ccccc1)c2ccccc2,water,298,-3.882202908,mol/L,182.222,2.917600000000001,17.07,0.0,1.0
CCCC(=O)OC(C)C1CCCCC1,water,298,-3.920758898,mol/L,198.3059999999999,3.2985000000000024,26.3,0.0,2.0
CCC1(CC=C2CCCc3cc(OC)ccc23)C(O)CCC1=O,water,298,-4.122768724,mol/L,314.4250000000001,3.925200000000003,46.53,1.0,3.0
S=C(Nc1ccccc1)Nc2ccccc2,water,298,-3.987106638,mol/L,228.32000000000002,3.4955000000000016,24.06,2.0,1.0
CCC(C)c1ccccc1,water,298,-3.758607848,mol/L,134.22199999999998,3.2001000000000017,0.0,0.0,0.0
[Na+].CC(=O)Nc1cccc(Nc2cc(c(N)c3C(=O)c4ccccc4C(=O)c23)[S]([O-])(=O)=O)c1,water,298,-4.307910861,mol/L,473.44200000000023,-0.3457000000000001,158.48999999999998,3.0,8.0
CCOCCCCCCCCCCCCCC\C=C\CC,water,298,-4.109034224,mol/L,296.539,7.0604000000000084,9.23,0.0,1.0
CC(=O)OC(C)(C)C1CCC(=CC1)C,water,298,-3.931170339,mol/L,196.28999999999996,3.0745000000000013,26.3,0.0,2.0
CC(C)=CCC\C(C)=C\CCC(C)(O)C=C,water,298,-3.985352266,mol/L,222.37199999999996,4.3963000000000045,20.23,1.0,1.0
CC(=C)C(=O)OCCCCCCOC(=O)C(C)=C,water,298,-4.043662925,mol/L,254.32599999999994,2.785400000000001,52.6,0.0,4.0
C[C@]12CC[C@H]3[C@@H](CCC4=C3CCC(=O)C4)[C@@H]1CCC2=O,water,298,-4.073460135,mol/L,272.388,3.841400000000003,34.14,0.0,2.0
Nc1ccc(cc1)C(F)(F)F,water,298,-2.847330143,mol/L,161.12599999999998,2.2876000000000003,26.02,1.0,1.0
[O-][N+](=O)c1ccc(Cl)cc1,water,298,-2.845252428,mol/L,157.55599999999998,2.2481999999999998,43.14,0.0,2.0
[Cl-].CC[N+](CC)(CC)Cc1ccccc1,water,298,-0.007265664,mol/L,227.77900000000002,0.06710000000000149,0.0,0.0,0.0
ClCCCBr,water,298,-1.846861546,mol/L,157.438,2.0102,0.0,0.0,0.0