Solute,Solvent,Temperature_K,Solubility,Units,MW,LogP,TPSA,HBD,HBA
[K+].O[P](O)(O)=O,water,298,0.628656443,mol/L,137.09199999999998,-3.9246,77.75999999999999,3.0,1.0
OC(C(O)C(O)=O)C(O)=O,water,298,0.588582801,mol/L,150.08599999999998,-2.1226,115.06,4.0,4.0
[K+].O[C@H]([C@@H](O)C([O-])=O)C(O)=O,water,298,0.490358752,mol/L,188.17599999999996,-6.453299999999998,117.89000000000001,3.0,5.0
[Na+].[K+].O[C@H]([C@@H](O)C([O-])=O)C([O-])=O,water,298,0.442377058,mol/L,210.15799999999993,-10.783999999999999,120.72,2.0,6.0
[Na+].[Na+].[Na+].[Na+].[O-]C(=O)CN(CCN(CC([O-])=O)CC([O-])=O)CC([O-])=O,water,298,0.183447866,mol/L,380.1720000000002,-19.393999999999984,167.0,0.0,10.0
CCC(COCCOC(=O)C=C)(COCCOC(=O)C=C)COCCOC(=O)C=C,water,298,-0.862551202,mol/L,428.4780000000003,1.6202,106.59,0.0,9.0
[Na+].[Na+].[Na+].[Na+].[O-][P]([O-])(=O)O[P]([O-])([O-])=O,water,298,-0.657564105,mol/L,265.90099999999995,-15.3236,135.61,0.0,7.0
[K+].CCCCCCCCCCCCCC(=O)N[C@@H](CCC(O)=O)C([O-])=O,water,298,-0.830822577,mol/L,395.5810000000001,-0.2089999999999968,106.53,2.0,4.0
CCOC(=O)CC(O)(CC(=O)OCC)C(=O)OCC,water,298,-0.677181175,mol/L,276.28499999999997,0.18700000000000006,99.13000000000001,1.0,7.0
CC(=O)OCC(COC(C)=O)OC(C)=O,water,298,-0.575436704,mol/L,218.20499999999998,0.044299999999999784,78.9,0.0,6.0
CC1(C)CO1,water,298,-0.094549434,mol/L,72.107,0.7952,12.53,0.0,1.0
CCCCCCOC1O[C@H](CO)[C@@H](O)[C@H](O)[C@H]1O,water,298,-0.658698746,mol/L,264.318,-0.6168000000000002,99.38000000000001,4.0,6.0
OC(=O)CC(O)(CC(O)=O)C(O)=O,water,298,0.476843124,mol/L,192.123,-1.2485,132.13000000000002,4.0,4.0
[Cl-].[Cl-].[NH3+]CCCCCCCC[NH3+],water,298,0.422840017,mol/L,217.18399999999994,-6.181200000000002,55.28,2.0,0.0
Nc1[nH]ncn1,water,298,0.832692995,mol/L,84.082,-0.6131000000000004,67.59,2.0,3.0
OCCN1C(=O)N(CCO)C(=O)N(CCO)C1=O,water,298,0.340366328,mol/L,261.234,-3.851399999999997,126.69000000000003,3.0,9.0
[Na+].OC(=O)CC(O)(CC(O)=O)C([O-])=O,water,298,0.425248046,mol/L,214.10499999999996,-5.579199999999998,134.96,3.0,5.0
CCOC(=O)CC#N,water,298,-0.290845476,mol/L,113.116,0.46318,50.09,0.0,3.0
[Na+].[Na+].Nc1c2C(=O)c3ccccc3C(=O)c2c(Nc4ccc(NC(=O)C(Br)=C)cc4[S]([O-])(=O)=O)cc1[S]([O-])(=O)=O,water,298,-1.061803892,mol/L,666.3950000000002,-3.5488999999999944,215.68999999999997,3.0,11.0
[Na+].[Na+].NC(=O)CCN(CCO)c1nc(Nc2ccccc2)nc(Nc3ccc(\C=C\c4ccc(Nc5nc(Nc6ccccc6)nc(n5)N(CCO)CCC(N)=O)cc4[S]([O-])(=O)=O)c(c3)[S]([O-])(=O)=O)n1,water,298,-1.247560996,mol/L,1015.0159999999996,-3.634199999999991,372.97999999999996,8.0,22.0
[Li+].[Cl-],water,298,1.127807871,mol/L,42.394000000000005,-5.992,0.0,0.0,0.0
OC1COC(O)C(O)C1O,water,298,0.577880851,mol/L,150.13,-2.5823000000000005,90.15,4.0,5.0
CC(C)(CO)C(O)C(=O)NCCCO,water,298,0.437676454,mol/L,205.25399999999996,-1.1355999999999997,89.79,4.0,4.0
OC(C(O)C(O)=O)C(O)=O,water,298,0.571847844,mol/L,150.08599999999998,-2.1226,115.06,4.0,4.0
O[P](O)(=O)CN(CCCCCCN(C[P](O)(O)=O)C[P](O)(O)=O)CCCCCCN(C[P](O)(O)=O)C[P](O)(O)=O,water,298,-0.087765578,mol/L,685.4150000000006,0.6891999999999994,297.37,10.0,8.0
[K+].O[C@H]([C@@H](O)C([O-])=O)C(O)=O,water,298,0.473623794,mol/L,188.17599999999996,-6.453299999999998,117.89000000000001,3.0,5.0
[Na+].[K+].O[C@H]([C@@H](O)C([O-])=O)C([O-])=O,water,298,0.4256421,mol/L,210.15799999999993,-10.783999999999999,120.72,2.0,6.0
OC1CCCCC1,water,298,-0.247115593,mol/L,100.161,1.3114,20.23,1.0,1.0
CSCCC(N)C(O)=O,water,298,-0.420996052,mol/L,149.215,0.1513999999999998,63.32,2.0,3.0
COC(=O)CC(C(C)=O)C(=O)OC,water,298,-0.524834841,mol/L,188.17899999999997,-0.07230000000000025,69.67,0.0,5.0
N.N.N.N.[Pd++].OC([O-])=O.OC([O-])=O,water,298,-0.722399688,mol/L,296.576,-1.5791000000000004,260.71999999999997,6.0,8.0
NC(CO)(CO)CO,water,298,0.657089461,mol/L,121.136,-2.3391999999999995,86.71000000000001,4.0,4.0
O[P](O)(=O)CN(CCCCCCN(C[P](O)(O)=O)C[P](O)(O)=O)CCCCCCN(C[P](O)(O)=O)C[P](O)(O)=O,water,298,-0.095590915,mol/L,685.4150000000006,0.6891999999999994,297.37,10.0,8.0
[Na+].[O-]C=O,water,298,0.907809072,mol/L,68.007,-4.629899999999999,40.129999999999995,0.0,2.0
C(CCOCC1CO1)COCC2CO2,water,298,-0.560813739,mol/L,202.24999999999994,0.5973999999999999,43.519999999999996,0.0,4.0
[Cl-].[Cl-].[Pd++],water,298,-0.503697626,mol/L,177.32600000000002,-5.9945,0.0,0.0,0.0
[Na+].[SH-],water,298,0.990088732,mol/L,56.065000000000005,-3.2661000000000002,0.0,0.0,1.0
NCCC(O)=O,water,298,0.786548045,mol/L,89.09399999999998,-0.5802,63.32,2.0,2.0
[H+].[H+].[Cl-].[Cl-].CNc1nc(OC)ccc1N,water,298,0.381923091,mol/L,226.10699999999997,-5.0528999999999975,60.17,2.0,4.0
CCC(C)NCCO,water,298,0.666700934,mol/L,117.192,0.36679999999999985,32.26,2.0,2.0
N,water,298,1.501957116,mol/L,17.031,0.16199999999999998,35.0,1.0,1.0
CC1(C)COC(=O)C1O,water,298,0.618133766,mol/L,130.143,-0.06969999999999993,46.53,1.0,3.0
OC(=O)CC(O)(CC(O)=O)C(O)=O.C1CNCCN1,water,298,0.287941418,mol/L,278.26099999999997,-2.0692999999999966,156.19000000000003,6.0,6.0
[Na+].[Na+].[O-][S](=O)O[S]([O-])=O,water,298,0.453391082,mol/L,190.10899999999998,-7.4007999999999985,89.49000000000001,0.0,5.0
CN=C(NCC1CCOC1)N[N+]([O-])=O,water,298,-0.569414718,mol/L,202.214,-0.6203999999999994,88.78999999999999,2.0,4.0
Oc1ccc(O)cc1,water,298,-0.306235751,mol/L,110.11199999999998,1.0977999999999999,40.46,2.0,2.0
CN=C(NCC1CCOC1)N[N+]([O-])=O,water,298,-0.571011391,mol/L,202.214,-0.6203999999999994,88.78999999999999,2.0,4.0
CCOCCC(=O)OCC,water,298,-0.431708518,mol/L,146.18599999999998,0.9761000000000001,35.53,0.0,3.0
CNC1CCCCC1,water,298,-0.321468013,mol/L,113.20400000000001,1.5385,12.03,1.0,1.0
Cc1cc(N)ccc1N,water,298,-0.354574369,mol/L,122.171,1.1594200000000001,52.04,2.0,2.0
COC(=O)CC#N,water,298,-0.263631686,mol/L,99.08900000000001,0.07307999999999992,50.09,0.0,3.0
[Na+].OCC[S]([O-])(=O)=O,water,298,0.556942214,mol/L,148.11499999999998,-4.472099999999998,77.43,1.0,4.0
CC[N+](CC)(CC)CC.[O-][S](=O)(=O)C(F)(F)C(F)(F)C(F)(F)C(F)(F)C(F)(F)C(F)(F)C(F)(F)C(F)(F)F,water,298,-0.072180899,mol/L,629.3730000000002,6.381300000000005,57.199999999999996,0.0,3.0
O=C1NCCN1,water,298,0.789302984,mol/L,86.09400000000001,-0.7008000000000001,41.13,2.0,1.0
CCCCCCCCCCCCCCC(C)c1cc(C)cc(C)c1O,water,298,-6.363736046,mol/L,346.59900000000005,8.203740000000005,20.23,1.0,1.0
[Na+].[Na+].CCCCCCCC/C=C/CCCCCCCCOC(=O)C(CC([O-])=O)[S]([O-])(=O)=O,water,298,-0.962426912,mol/L,492.5860000000003,-2.3710999999999913,123.63,0.0,7.0
CCOC(=O)CC#N,water,298,-0.327612407,mol/L,113.116,0.46318,50.09,0.0,3.0
[Na+].[Na+].COc1cc(c(OC)cc1N=NC2C(=NN(C2=O)c3ccc(cc3)[S]([O-])(=O)=O)C)[S](=O)(=O)CCO[S]([O-])(=O)=O,water,298,-0.089843034,mol/L,650.5770000000002,-5.258599999999991,233.61999999999995,0.0,15.0
[Na+].[Na+].OC(=O)C(O)(CC([O-])=O)CC([O-])=O,water,298,0.345413007,mol/L,236.08699999999993,-9.9099,137.79,2.0,6.0
[Na+].CCOC([S-])=S,water,298,0.55705013,mol/L,144.196,-2.1412999999999993,9.23,0.0,3.0
NC(=O)CCl,water,298,-0.250712687,mol/L,93.513,-0.2895000000000001,43.09,1.0,1.0
CN=C(NCC1CCOC1)N[N+]([O-])=O,water,298,-0.587309531,mol/L,202.214,-0.6203999999999994,88.78999999999999,2.0,4.0
CC(CCC#N)C#N,water,298,-0.31550074,mol/L,108.144,1.44986,47.58,0.0,2.0
CCCCOCC(C)O,water,298,-0.405237967,mol/L,132.203,1.1839,29.46,1.0,2.0
NC(Nc1ccccc1)=Nc2ccccc2,water,298,0.390333637,mol/L,211.26799999999997,2.7449000000000012,50.41,2.0,1.0
O=C1OC=CO1,water,298,0.777076543,mol/L,86.04599999999999,0.23279999999999998,43.35,0.0,3.0
N,water,298,1.476330027,mol/L,17.031,0.16199999999999998,35.0,1.0,1.0
[Na+].CCC(C)OC(S)=S,water,298,0.468876879,mol/L,173.258,-0.9797999999999998,9.23,1.0,2.0
[NH4+].[NH4+].[O-]C(=O)C([O-])=O,water,298,-0.383640418,mol/L,124.09599999999999,-2.7614,153.26,2.0,4.0
CN=C(NCC1CCOC1)N[N+]([O-])=O,water,298,-0.596541259,mol/L,202.214,-0.6203999999999994,88.78999999999999,2.0,4.0
CC(O)c1cc(N)ccc1N.[O-][S]([O-])(=O)=O,water,298,-0.68563679,mol/L,248.25999999999996,-0.4336999999999997,152.53,3.0,7.0
Cc1ncoc1C#N,water,298,-0.324555733,mol/L,108.1,0.8547,49.82,0.0,3.0
[Cd++].O[N+]([O-])=O.O[N+]([O-])=O,water,298,0.327636132,mol/L,238.436,-0.6979,126.74000000000001,2.0,4.0
[Na+].CCOC([S-])=S,water,298,0.544338165,mol/L,144.196,-2.1412999999999993,9.23,0.0,3.0
[Na+].CCC(C)OC(S)=S,water,298,0.464598081,mol/L,173.258,-0.9797999999999998,9.23,1.0,2.0
[Cl-].[Cl-].[NH3+]CCCCCCCC[NH3+],water,298,0.362142177,mol/L,217.18399999999994,-6.181200000000002,55.28,2.0,0.0
CC(C)(C)NC(=O)[C@@H]1C[C@@H]2CCCC[C@H]2C[NH2+]1,water,298,-2.161609361,mol/L,239.38299999999992,1.0432000000000006,45.71,2.0,1.0
OCCCCCCO,water,298,1.626440718,mol/L,118.176,0.5313999999999999,40.46,2.0,2.0
CN(C)CCOC(=O)C(C)=C,water,298,0.502481549,mol/L,157.21299999999997,0.6672999999999998,29.54,0.0,3.0
[Na+].[Na+].OC(C(O)C([O-])=O)C([O-])=O,water,298,0.411056357,mol/L,194.04999999999995,-10.783999999999999,120.72,2.0,6.0
CCO[P](=O)(OCC)OCC,water,298,0.438526523,mol/L,182.15599999999998,2.2039999999999997,44.760000000000005,0.0,4.0
OC(=O)C1CCC(=O)N1,water,298,-0.404258917,mol/L,129.115,-0.6504000000000001,66.39999999999999,2.0,2.0
CC(=C)C=O,water,298,-0.146692252,mol/L,70.09100000000001,0.7614000000000001,17.07,0.0,1.0
CCCC=O,water,298,-0.159007423,mol/L,72.107,0.9854,17.07,0.0,1.0
CCC(=O)CC,water,298,-0.236204612,mol/L,86.134,1.3755,17.07,0.0,1.0
ClCl,water,298,-1.079095506,mol/L,70.906,1.379,0.0,0.0,0.0
C/C=C/CCC1CCCC(=O)O1,water,298,-1.459506087,mol/L,168.236,2.4384000000000006,26.3,0.0,2.0
C1CCSC1,water,298,-1.181917475,mol/L,88.175,1.5133999999999999,0.0,0.0,1.0
C/C=C/CCC1CCCC(=O)O1,water,298,-1.465496451,mol/L,168.236,2.4384000000000006,26.3,0.0,2.0
CC(=O)Oc1ccccc1,water,298,-1.373595162,mol/L,136.14999999999998,1.6118999999999999,26.3,0.0,2.0
CCCl,water,298,-1.050748809,mol/L,64.515,1.2451,0.0,0.0,0.0
Clc1cc(Cl)ncn1,water,298,-1.417253114,mol/L,148.98000000000002,1.7833999999999997,25.78,0.0,2.0
[Na+].[Na+].[Na+].CC(=O)C(N=Nc1ccc(cc1)N=Nc2c(N)c3c(cc2[S]([O-])(=O)=O)C=C(\C(=N/Nc4ccc(c5ccccc45)[S]([O-])(=O)=O)C3=O)[S]([O-])(=O)=O)C(=O)Nc6ccccc6,water,298,-2.218028318,mol/L,926.8110000000004,-4.111899999999993,334.6899999999999,3.0,19.0
Cc1ccc(N)c(C)c1,water,298,-1.335253673,mol/L,121.183,1.88564,26.02,1.0,1.0
Nc1ccccc1Cl,water,298,-1.357574146,mol/L,127.574,1.9222,26.02,1.0,1.0
CC(C)COC(C)=O,water,298,-1.316868576,mol/L,116.15999999999998,1.2055,26.3,0.0,2.0
N[P](N)(=O)Oc1ccccc1,water,298,-1.487653403,mol/L,172.124,1.0909000000000002,78.34,2.0,2.0
CC(C)OC(=O)C(F)(F)F,water,298,-1.445223222,mol/L,156.10299999999998,1.5003000000000002,26.3,0.0,2.0
[Na+].CCOc1cccc2C(=O)c3c(Nc4ccccc4[S]([O-])(=O)=O)ccc(NC5CCCCC5)c3C(=O)c12,water,298,-1.987836786,mol/L,542.5890000000003,2.2569999999999997,124.63,2.0,8.0
CC(=O)c1ccccc1,water,298,-1.3393647,mol/L,120.15099999999995,1.8892,17.07,0.0,1.0
CC(CN)CCCN,water,298,-1.327248701,mol/L,116.20800000000001,0.32010000000000016,52.04,2.0,2.0
CN1C(=CC(=O)N(C)C1=O)N,water,298,-1.453578731,mol/L,155.15699999999998,-1.3337999999999988,70.02,1.0,5.0
C/C=C/CCC1CCCC(=O)O1,water,298,-1.488726291,mol/L,168.236,2.4384000000000006,26.3,0.0,2.0
[K+].F[B-](F)(F)F,water,298,-1.367638869,mol/L,125.90200000000002,-1.6960000000000002,0.0,0.0,0.0
NC(CC(O)=O)C(O)=O,water,298,-1.395023054,mol/L,133.10299999999998,-1.127,100.62,3.0,3.0
CCCOC(=O)C(/O)=C/Oc1ccccc1,water,298,-1.622546359,mol/L,222.24,2.418,55.760000000000005,1.0,4.0
CCCCOC(C)=O,water,298,-1.340780734,mol/L,116.15999999999998,1.3496000000000001,26.3,0.0,2.0
NC1=CC(=O)N=C(N)N1,water,298,-1.378146596,mol/L,126.11900000000001,-1.0657000000000003,97.78999999999999,3.0,4.0
Cc1ccc(N)c(Cl)c1O,water,298,-1.48155287,mol/L,157.60000000000002,1.93622,46.25,2.0,2.0
[N-]=[N+]=C1C(=O)NC(=O)NC1=O,water,298,-1.471757019,mol/L,154.08499999999998,-1.9768000000000003,111.66999999999999,2.0,3.0
NC12CC3CC(CC(C3)C1)C2,water,298,-1.463700654,mol/L,151.253,1.9139,26.02,1.0,1.0
CC(COCC(C)OC(=O)C=C)OC(=O)C=C,water,298,-1.668298088,mol/L,242.27099999999996,1.2384,61.830000000000005,0.0,5.0
OC(=O)c1ccncc1,water,298,-1.375967099,mol/L,123.11099999999998,0.7797999999999999,50.19,1.0,2.0
OC1CSC(O)CS1,water,298,-1.469038232,mol/L,152.23999999999998,0.10319999999999996,40.46,2.0,4.0
CC(=O)CCCCCl,water,298,-1.415573876,mol/L,134.606,1.9845000000000002,17.07,0.0,1.0
CC1=NN(C(=O)C1)c2ccc(cc2)[S](O)(=O)=O,water,298,-1.692640297,mol/L,254.267,1.0459,87.03999999999999,1.0,4.0
Nc1ccccc1Cl,water,298,-1.395644808,mol/L,127.574,1.9222,26.02,1.0,1.0
Cc1ccccc1[S](N)(=O)=O,water,298,-1.525986853,mol/L,171.22099999999998,0.6424200000000001,60.160000000000004,1.0,2.0
CC1CC(NC(N)=O)NC(=O)N1,water,298,-1.531423432,mol/L,172.18800000000002,-0.9277999999999988,96.25,4.0,2.0
Cc1cc(N)ccc1N.O[S](O)(=O)=O,water,298,-1.641347932,mol/L,220.25000000000003,0.5066200000000003,126.63999999999999,4.0,4.0
NN=C(N)N.OC(O)=O,water,298,-1.43492322,mol/L,136.111,-1.6441,147.95,5.0,3.0
NC(CC(O)=O)C(O)=O,water,298,-1.42521784,mol/L,133.10299999999998,-1.127,100.62,3.0,3.0
Nc1cccc(c1)C(F)(F)F,water,298,-1.508195621,mol/L,161.12599999999998,2.2876000000000003,26.02,1.0,1.0
NC1CCC(CC1)CC2CCC(N)CC2,water,298,-1.62400348,mol/L,210.36499999999995,2.4115,52.04,2.0,2.0
COc1ccc(OC)c(NC(C)=O)c1,water,298,-1.591549855,mol/L,195.218,1.6622,47.56,1.0,3.0
c1ccc2cnccc2c1,water,298,-1.412164757,mol/L,129.16199999999998,2.2348,12.89,0.0,1.0
[K+].CC(C)c1ccc(cc1)[S]([O-])(=O)=O,water,298,0.320887212,mol/L,238.34899999999996,-1.281899999999999,57.199999999999996,0.0,3.0
[NH4+].O.NC([O-])=O,water,298,0.711593998,mol/L,96.08599999999998,-2.1601000000000004,134.15,2.0,2.0
[Na+].CC(C)c1ccc(cc1)[S]([O-])(=O)=O,water,298,0.346022737,mol/L,222.24099999999999,-1.281899999999999,57.199999999999996,0.0,3.0
[NH4+].O.NC([O-])=O,water,298,0.707535966,mol/L,96.08599999999998,-2.1601000000000004,134.15,2.0,2.0
CO[S]([O-])(=O)=O.C[N+](C)(C)CCCNC(=O)CCCCCCCCC=C,water,298,0.094063213,mol/L,394.5780000000003,2.5987,95.53,1.0,5.0
OCCNc1ccccc1,water,298,-0.440067788,mol/L,137.182,1.0908,32.26,2.0,2.0
O.O.O.O.O.O.O.O.O.O.[Na+].[Na+].[O-]B(OB=O)OB([O-])OB=O,water,298,-0.884641885,mol/L,381.37100000000015,-18.583000000000013,422.95000000000005,0.0,7.0
Nc1ncccc1O,water,298,-0.346106152,mol/L,110.11599999999997,0.3694,59.14,2.0,3.0
OCCN(CCO)c1ccccc1,water,298,-0.564515123,mol/L,181.235,0.47759999999999986,43.7,2.0,3.0
C=CN1CCCCCC1=O,water,298,-0.450786076,mol/L,139.198,1.5325,20.310000000000002,0.0,1.0
CC(=O)OC\C=C(/C)C=O,water,298,-0.460793982,mol/L,142.154,0.6947000000000001,43.370000000000005,0.0,3.0
OB(O)O,water,298,-0.099255215,mol/L,61.83300000000001,-2.0518,60.69,3.0,3.0
[Ca++].[Ca++].[Ca++].[O-]B([O-])[O-].[O-]B([O-])[O-],water,298,-0.684341705,mol/L,237.852,-9.038,138.35999999999999,0.0,6.0
[K].OB(O)O,water,298,-0.312059473,mol/L,100.93099999999998,-2.4326,60.69,3.0,3.0
OCCN(CCO)c1ccccc1,water,298,-0.56716058,mol/L,181.235,0.47759999999999986,43.7,2.0,3.0
CCC(CO)(CO)C(O)=O,water,298,0.516803854,mol/L,148.158,-0.5480000000000003,77.75999999999999,3.0,3.0
[Pb++].[O-][N+]([O-])=O.[O-][N+]([O-])=O,water,298,0.166535451,mol/L,331.2080000000001,-0.8590000000000002,132.4,0.0,6.0
[Al+3].O[PH]([O-])=O.O[PH]([O-])=O.O[PH]([O-])=O,water,298,-3.505959979,mol/L,269.943,-4.1947,181.07999999999998,3.0,6.0
[Na+].[Na+].[Na+].OCCN(CCN(CC([O-])=O)CC([O-])=O)CC([O-])=O,water,298,0.144421539,mol/L,344.20700000000005,-15.155599999999998,147.1,1.0,9.0
OCCN(CCO)c1ccccc1,water,298,-0.571605803,mol/L,181.235,0.47759999999999986,43.7,2.0,3.0
[Al+3].O[PH]([O-])=O.O[PH]([O-])=O.O[PH]([O-])=O,water,298,-3.932961516,mol/L,269.943,-4.1947,181.07999999999998,3.0,6.0
OCCN(CCO)c1ccccc1,water,298,-0.572500334,mol/L,181.235,0.47759999999999986,43.7,2.0,3.0
OB(O)O,water,298,-0.106644231,mol/L,61.83300000000001,-2.0518,60.69,3.0,3.0
[Ca++].[Ca++].[Ca++].[O-]B([O-])[O-].[O-]B([O-])[O-],water,298,-0.69173072,mol/L,237.852,-9.038,138.35999999999999,0.0,6.0
[K].OB(O)O,water,298,-0.319448489,mol/L,100.93099999999998,-2.4326,60.69,3.0,3.0
OCCN(CCO)c1ccccc1,water,298,-0.574294941,mol/L,181.235,0.47759999999999986,43.7,2.0,3.0
[Na+].[Na+].OCCN(CCO)c1nc(Nc2ccccc2)nc(Nc3ccc(\C=C\c4ccc(Nc5nc(Nc6ccccc6)nc(n5)N(CCO)CCO)cc4[S]([O-])(=O)=O)c(c3)[S]([O-])(=O)=O)n1,water,298,-1.29966008,mol/L,960.9639999999999,-3.400399999999988,327.25999999999993,8.0,22.0
[Zn++].CC(O)C([O-])=O.CC(O)C([O-])=O,water,298,-0.703505431,mol/L,243.52999999999997,-3.7682999999999978,120.72,2.0,6.0
[Al+3].O[PH]([O-])=O.O[PH]([O-])=O.O[PH]([O-])=O,water,298,-4.006390434,mol/L,269.943,-4.1947,181.07999999999998,3.0,6.0
[Al+3].O[PH]([O-])=O.O[PH]([O-])=O.O[PH]([O-])=O,water,298,-4.150238703,mol/L,269.943,-4.1947,181.07999999999998,3.0,6.0
[Al+3].O[PH]([O-])=O.O[PH]([O-])=O.O[PH]([O-])=O,water,298,-4.56794921,mol/L,269.943,-4.1947,181.07999999999998,3.0,6.0
CC(C)CC(O)=O,water,298,-0.327924852,mol/L,102.13299999999998,1.1171,37.3,1.0,1.0
CC[N+]([O-])=O,water,298,-0.194207823,mol/L,75.067,0.2829999999999999,43.14,0.0,2.0
[Al+3].O[PH]([O-])=O.O[PH]([O-])=O.O[PH]([O-])=O,water,298,-4.755493728,mol/L,269.943,-4.1947,181.07999999999998,3.0,6.0
OC(=O)\C=C\C(O)=O,water,298,0.615426674,mol/L,116.07199999999999,-0.28819999999999985,74.6,2.0,2.0
[Cl].[Fe].[O-][S]([O-])(=O)=O,water,298,0.407474946,mol/L,187.361,-0.6509999999999998,80.25999999999999,0.0,4.0
[Cl-].[Cl-].[Cl-].[Fe+3],water,298,0.470092582,mol/L,162.204,-8.990499999999999,0.0,0.0,0.0
[Fe++].[O-][S]([O-])(=O)=O,water,298,0.498573496,mol/L,151.908,-1.3405,80.25999999999999,0.0,4.0
[Cl].[Fe].[O-][S]([O-])(=O)=O,water,298,0.405839183,mol/L,187.361,-0.6509999999999998,80.25999999999999,0.0,4.0
[Cl-].[Cl-].[Cl-].[Fe+3],water,298,0.468456819,mol/L,162.204,-8.990499999999999,0.0,0.0,0.0
[Fe++].[O-][S]([O-])(=O)=O,water,298,0.496937733,mol/L,151.908,-1.3405,80.25999999999999,0.0,4.0
[Cl].[Fe].[O-][S]([O-])(=O)=O,water,298,0.399418662,mol/L,187.361,-0.6509999999999998,80.25999999999999,0.0,4.0
[Cl-].[Cl-].[Cl-].[Fe+3],water,298,0.462036298,mol/L,162.204,-8.990499999999999,0.0,0.0,0.0
[Li+].[Li+].[Li+].O.O.O.O.OC(CC([O-])=O)(CC([O-])=O)C([O-])=O,water,298,0.221876471,mol/L,281.98199999999997,-17.539400000000008,266.62,1.0,7.0
[Fe++].[O-][S]([O-])(=O)=O,water,298,0.490517212,mol/L,151.908,-1.3405,80.25999999999999,0.0,4.0
CCCCC(=O)N(Cc1ccc(cc1)c2ccccc2c3n[nH]nn3)[C@@H](C(C)C)C(O)=O,water,298,-2.735926094,mol/L,435.5280000000002,4.161700000000002,112.07000000000002,2.0,5.0
[I-].C[S+](C)(C)=O,water,298,-0.662235197,mol/L,220.075,-2.6206999999999985,17.07,0.0,1.0
CC(C)COC(=O)[C@@H](C)O,water,298,-0.486387404,mol/L,146.18599999999998,0.5664,46.53,1.0,3.0
OCCN(CCO)c1ccccc1,water,298,-0.583380931,mol/L,181.235,0.47759999999999986,43.7,2.0,3.0
OCCN(CCO)c1ccccc1,water,298,-0.584300074,mol/L,181.235,0.47759999999999986,43.7,2.0,3.0
CCOC(=O)OC,water,298,-0.344450681,mol/L,104.10499999999999,0.7893000000000001,35.53,0.0,3.0
[Mg++].[Cl-].[Cl-],water,298,0.692207827,mol/L,95.21100000000001,-6.3728,0.0,0.0,0.0
NCCCCCCN.OC(=O)CCCCC(O)=O,water,298,0.251364785,mol/L,262.34999999999997,1.1801999999999997,126.64000000000001,4.0,4.0
NCCCCCCN.OC(=O)CCCCC(O)=O,water,298,0.251271977,mol/L,262.34999999999997,1.1801999999999997,126.64000000000001,4.0,4.0
[O-][S]([O-])(=O)=O.O=[V++],water,298,0.457118619,mol/L,163.00599999999997,-1.4592999999999996,97.32999999999998,0.0,5.0
[Li+].O.O.O.[O-][Cl](=O)(=O)=O,water,298,0.461218862,mol/L,160.435,-10.226099999999997,186.74,0.0,4.0
CCOC(=O)OC,water,298,-0.347225735,mol/L,104.10499999999999,0.7893000000000001,35.53,0.0,3.0
[K+].[O-][S](=O)(=O)C(F)(F)C(F)(F)C(F)(F)C(F)(F)F,water,298,-0.864516218,mol/L,338.18799999999993,-1.0387,57.199999999999996,0.0,3.0
[Cl-].CCN(CCO)c1ccc(cc1)N=Nc2sc3cc(OC)ccc3[n+]2C,water,298,-0.946771482,mol/L,406.9390000000002,0.9724000000000008,61.300000000000004,1.0,6.0
CCN(CCO)c1ccc(cc1)N=Nc2sc3cc(OC)ccc3[n+]2C.CO[S]([O-])(=O)=O,water,298,-1.020815087,mol/L,482.58400000000023,3.0614000000000017,127.72999999999999,1.0,10.0
CCCCOC(=O)CO,water,298,-0.458338912,mol/L,132.159,0.322,46.53,1.0,3.0
COC(=O)CCl,water,298,-0.372767961,mol/L,108.52400000000002,0.3981999999999999,26.3,0.0,2.0
[Cl-].[Cl-].[Cd++],water,298,0.39671109,mol/L,183.318,-5.9945,0.0,0.0,0.0
[Na+].[O-][S](=O)(=O)CCBr,water,298,0.332748699,mol/L,211.01199999999997,-3.069499999999999,57.199999999999996,0.0,3.0