Solute,Solvent,Temperature_K,Solubility,Units,MW,LogP,TPSA,HBD,HBA
CCCCCCCCCc1ccccc1O.CC2CO2.OCCNCCO.C=O,water,298,-1.463069491,mol/L,413.59900000000033,3.4661000000000017,102.32,4.0,6.0
CI,water,298,-0.999813397,mol/L,141.939,1.0512000000000001,0.0,0.0,0.0
[Cl-].CCN(CC)c1ccc2C=C(C(=O)Oc2c1)c3n(C)c4ccccc4[n+]3C,water,298,-1.450561375,mol/L,397.9060000000001,0.6264000000000007,42.260000000000005,0.0,4.0
Oc1ccc(cc1O)C#N,water,298,-0.981506952,mol/L,135.12199999999999,0.9694799999999999,64.25,2.0,3.0
CC(C)CC(C)=O,water,298,-0.851479539,mol/L,100.16099999999999,1.6215,17.07,0.0,1.0
COc1ccccc1N,water,298,-0.944324013,mol/L,123.15499999999999,1.2773999999999999,35.25,1.0,2.0
[K+].O[B-](O)(F)F,water,298,-0.939946918,mol/L,121.92,-3.6504000000000003,40.46,2.0,2.0
C=COCCOCCOC=C,water,298,-1.053070208,mol/L,158.197,1.3232,27.69,0.0,3.0
OC(C(O)C(O)=O)C(O)=O,water,298,0.966674617,mol/L,150.08599999999998,-2.1226,115.06,4.0,4.0
[K+].O[C@H]([C@@H](O)C([O-])=O)C(O)=O,water,298,0.868450568,mol/L,188.17599999999996,-6.453299999999998,117.89000000000001,3.0,5.0
[Na+].[K+].O[C@H]([C@@H](O)C([O-])=O)C([O-])=O,water,298,0.820468874,mol/L,210.15799999999993,-10.783999999999999,120.72,2.0,6.0
[Na+].[Na+].[Na+].CN(c1ccc2c(c1)C=C(/C(=N/Nc3ccccc3[S]([O-])(=O)=O)C2=O)[S]([O-])(=O)=O)c4nc(Cl)nc(Nc5cccc(c5)[S]([O-])(=O)=O)n4,water,298,-0.752029987,mol/L,788.085,-6.592800000000009,266.99999999999994,2.0,17.0
OC(C(O)=O)c1ccccc1,water,298,-0.039254302,mol/L,152.149,0.8046,57.53,2.0,2.0
O.O.O.O.O.O.[Co++].[O-][N+]([O-])=O.[O-][N](=O)=O,water,298,0.675309966,mol/L,291.031,-5.428899999999997,321.4,0.0,6.0
[Cu++].[O-][N+]([O-])=O.[O-][N+]([O-])=O,water,298,0.866122887,mol/L,187.554,-0.4807000000000001,132.4,0.0,6.0
[Na+].OC(=O)CC(O)(CC(O)=O)C([O-])=O,water,298,-0.200293041,mol/L,214.10499999999996,-5.579199999999998,134.96,3.0,5.0
OC(C(O)=O)c1ccccc1,water,298,-0.053546818,mol/L,152.149,0.8046,57.53,2.0,2.0
COC(=O)CCC(=O)OC,water,298,-0.037670248,mol/L,146.142,0.11259999999999981,52.60000000000001,0.0,4.0
NC(N)=S,water,298,0.245258976,mol/L,76.124,-0.8113000000000001,52.04,2.0,1.0
COCc1oc(C=O)cc1,water,298,-0.022704274,mol/L,140.13799999999998,1.2385,39.44,0.0,3.0
[nH]1cccn1,water,298,1.28788965,mol/L,68.07900000000001,0.40969999999999995,28.68,1.0,1.0
CCN(CC[N+](C)(C)CC(C)O)c1ccc(cc1)N=Nc2ccc(cc2Cl)[N+]([O-])=O.CC([O-])=O,water,298,-0.573145985,mol/L,493.99200000000025,3.7033000000000023,131.45999999999998,1.0,8.0
[Cl-].CCN(CC[N+](C)(C)CC(C)O)c1ccc(cc1)N=Nc2ccc(cc2Cl)[N+]([O-])=O,water,298,-0.551894305,mol/L,470.40100000000024,1.9511000000000012,91.32999999999998,1.0,6.0
[Cu++].[O-]C(=O)C1CCC(=O)N1.[O-]C(=O)C2CCC(=O)N2,water,298,-0.384250204,mol/L,319.76000000000005,-3.972699999999997,138.45999999999998,2.0,6.0
[Na+].[Na+].COc1cc(ccc1NC(=O)Nc2ccc(cc2OC)N=Nc3cccc(c3)[S]([O-])(=O)=O)N=Nc4cccc(c4)[S]([O-])(=O)=O,water,298,-0.714875651,mol/L,684.6200000000002,-0.0051999999999954305,223.43,2.0,13.0
[Y+3].[O-][N+]([O-])=O.[O-][N+]([O-])=O.[O-][N+]([O-])=O,water,298,0.678730659,mol/L,274.918,-0.7198000000000002,198.6,0.0,9.0
OC(=O)C(Cl)(Cl)Cl,water,298,0.900725854,mol/L,163.387,1.4412,37.3,1.0,1.0
CCOC(=O)CC(C)=O,water,298,0.000523602,mol/L,130.143,0.5286,43.370000000000005,0.0,3.0
CC(CO)OC(=O)C(C)=C,water,298,-0.044931546,mol/L,144.16999999999996,0.4865000000000001,46.53,1.0,3.0
Cc1ccc2OCC(=O)COc2c1,water,298,-1.114155449,mol/L,178.18699999999998,1.3353199999999998,35.53,0.0,3.0
CCOC(=O)c1ccnc(c1)C(=O)OCC,water,298,-1.2184149,mol/L,223.22799999999995,1.435,65.49,0.0,5.0
O[P](O)(=O)c1ccccc1,water,298,-1.069383867,mol/L,158.093,0.4895999999999999,57.53,2.0,1.0
[Na+].[Na+].[K].[K].OCCN(CCO)c1nc(Nc2ccccc2)nc(Nc3ccc(\C=C\c4ccc(Nc5nc(Nc6ccccc6)nc(n5)N(CCO)CCO)cc4[S]([O-])(=O)=O)c(c3)[S]([O-])(=O)=O)n1,water,298,-1.887960137,mol/L,1039.1599999999999,-4.161999999999989,327.25999999999993,8.0,22.0
CC(C)(O)C(=O)c1ccccc1,water,298,-1.091532091,mol/L,164.204,1.6401999999999999,37.3,1.0,2.0
CC1=CCC2C(C1)C(=O)OC2=O,water,298,-1.09999437,mol/L,166.176,1.0423,43.370000000000005,0.0,3.0
CCCCC(CC)CO.O[P](O)(O)=O,water,298,-1.237789285,mol/L,228.225,1.2664999999999997,97.99000000000001,4.0,2.0
CCN(C(C)C)C(C)C,water,298,-0.993155745,mol/L,129.24699999999999,2.1250999999999998,3.24,0.0,1.0
OCCOc1ccc(OCCO)cc1,water,298,-1.179871794,mol/L,198.21799999999996,0.4287999999999999,58.92,2.0,4.0
Cc1cccc(C)c1N,water,298,-0.969498347,mol/L,121.183,1.88564,26.02,1.0,1.0
CCC(C)C=O,water,298,-0.821231264,mol/L,86.13399999999999,1.2314,17.07,0.0,1.0
CC(C)CN(CC(C)C)C=O,water,298,-1.082666634,mol/L,157.25699999999998,1.7568000000000001,20.310000000000002,0.0,1.0
CN1C(=C(NC=O)C(=O)N(C)C1=O)N,water,298,-1.183120855,mol/L,198.18199999999996,-1.7654999999999994,99.11999999999999,2.0,6.0
[Na+].[Na+].[Na+].CCN(c1ccccc1)c2nc(Cl)nc(Nc3cc(cc4C=C(\C(=N/Nc5ccc(C)cc5[S]([O-])(=O)=O)C(=O)c34)[S]([O-])(=O)=O)[S]([O-])(=O)=O)n2,water,298,-0.800434395,mol/L,816.1390000000005,-5.89428,266.99999999999994,2.0,17.0
C=CCOCC1CO1,water,298,0.049756882,mol/L,114.14399999999999,0.5878,21.759999999999998,0.0,2.0
N#CCCC#N,water,298,0.199883328,mol/L,80.09,0.81376,47.58,0.0,2.0
OC(C(O)C(O)=O)C(O)=O,water,298,0.92056983,mol/L,150.08599999999998,-2.1226,115.06,4.0,4.0
[K+].O[C@H]([C@@H](O)C([O-])=O)C(O)=O,water,298,0.82234578,mol/L,188.17599999999996,-6.453299999999998,117.89000000000001,3.0,5.0
[Na+].[K+].O[C@H]([C@@H](O)C([O-])=O)C([O-])=O,water,298,0.774364086,mol/L,210.15799999999993,-10.783999999999999,120.72,2.0,6.0
CC(=O)CC(C)=O,water,298,0.096402186,mol/L,100.11699999999999,0.5545,34.14,0.0,2.0
[Na+].[Na+].[Na+].CCN(c1cccc(c1)[S](=O)(=O)CCO[S]([O-])(=O)=O)c2nc(Cl)nc(Nc3ccc4C(=O)C(=N/Nc5ccc(OC)cc5[S]([O-])(=O)=O)\C(=Cc4c3)[S]([O-])(=O)=O)n2,water,298,-0.8763361,mol/L,940.2560000000002,-6.847700000000019,319.59999999999997,2.0,21.0
CCOC(=O)CC1(C)OCCO1,water,298,-0.144823593,mol/L,174.19599999999997,0.7026000000000001,44.760000000000005,0.0,4.0
[Li+].[Li+].[Na+].[Na+].COc1cc(ccc1N\N=C/2C(=O)c3c(O)cc(cc3C=C2[S]([O-])(=O)=O)[S]([O-])(=O)=O)N(O)\N=C\4C=CC(=N\N=C\5C(=O)c6c(O)cc(cc6C=C5[S]([O-])(=O)=O)[S]([O-])(=O)=O)\C(=C4)OC,water,298,-0.909479678,mol/L,1006.7030000000001,-11.287600000000028,406.8,4.0,25.0
CN(C)Cc1ccccc1Cl,water,298,-0.136144978,mol/L,169.65499999999997,2.4016,3.24,0.0,1.0
[K+].[O-][V](=O)=O,water,298,-0.046573827,mol/L,138.039,-4.425100000000001,57.199999999999996,0.0,3.0
[La],water,298,0.947184106,mol/L,138.906,0.0,0.0,0.0,0.0
[Li+].[Li+].[Na+].[Na+].Nc1c(N=Nc2ccc(cc2)[S](=O)(=O)CCO[S]([O-])(=O)=O)c(cc3C=C(\C(=N/Nc4cc(Nc5nc(F)nc(F)c5Cl)ccc4[S]([O-])(=O)=O)C(=O)c13)[S]([O-])(=O)=O)[S]([O-])(=O)=O,water,298,-0.913801018,mol/L,1015.1300000000003,-10.225400000000018,402.17999999999995,3.0,24.0
[Na+].[Na+].[Na+].[Na+].[O-][S](=O)(=O)OCC[S](=O)(=O)c1ccc(N\N=C/2C(=O)c3c(Nc4nc(Cl)nc(Nc5cccc(c5)[S]([O-])(=O)=O)n4)cc(cc3C=C2[S]([O-])(=O)=O)[S]([O-])(=O)=O)cc1,water,298,-0.903187957,mol/L,984.2220000000002,-11.362600000000022,376.35999999999996,3.0,23.0
COC(=O)CCC(=O)OC,water,298,-0.075223164,mol/L,146.142,0.11259999999999981,52.60000000000001,0.0,4.0
[La],water,298,0.940064365,mol/L,138.906,0.0,0.0,0.0,0.0
[Na+].[O-]C(=O)C(Cl)(Cl)Cl,water,298,0.811144139,mol/L,185.369,-2.8895,40.129999999999995,0.0,2.0
O=C(OCC1CO1)C2CC=CCC2C(=O)OCC3CO3,water,298,-1.34010886,mol/L,282.29200000000003,0.4528000000000001,77.66,0.0,6.0
[Ca++].CC(=O)[CH-]C(C)=O.CC(=O)[CH-]C(C)=O,water,298,-1.266527042,mol/L,238.29599999999996,0.3565800000000001,68.28,0.0,4.0
[Na+].[Na+].[O-][S](=O)(=O)C1=CC(=O)C2=C(NNc3ccc(NC(=O)C(Br)=C)cc3[S]([O-])(=O)=O)C(=N)C=CC2=C1,water,298,-1.6785332,mol/L,615.3510000000001,-4.855829999999994,208.48,4.0,11.0
Oc1ccc(cc1O)C#N,water,298,-1.023516095,mol/L,135.12199999999999,0.9694799999999999,64.25,2.0,3.0
CC(=C)C(=O)OCCOCCOCCOCCOC(=O)C(C)=C,water,298,-1.41863926,mol/L,330.37700000000007,1.2748,80.29000000000002,0.0,7.0
Nc1ccc(cc1)[S](O)(=O)=O,water,298,-1.141273025,mol/L,173.19299999999998,0.5155000000000001,80.39,2.0,3.0
COC1CCCC1,water,298,-0.903788639,mol/L,100.16100000000002,1.5754000000000001,9.23,0.0,1.0
Nc1ccc(cc1N)[S](O)(=O)=O,water,298,-1.181216395,mol/L,188.208,0.09769999999999995,106.41,3.0,4.0
NC1CCC(CC1)CC2CCC(N)CC2,water,298,-1.233068373,mol/L,210.36499999999995,2.4115,52.04,2.0,2.0
O=N\C=C/1NC=CC=C1,water,298,-1.000451858,mol/L,122.12699999999997,1.2672999999999999,41.46,1.0,3.0
CCCC(C)C(O)=O,water,298,-0.978696773,mol/L,116.15999999999998,1.5072,37.3,1.0,1.0
O=C1NC(=O)C2CC=CCC12,water,298,-1.093091418,mol/L,151.16499999999996,0.22519999999999984,46.17,1.0,2.0
CC1=CC(=O)CC(C)(C)C1,water,298,-1.061358221,mol/L,138.20999999999998,2.3218000000000005,17.07,0.0,1.0
Cc1cccc(N)c1,water,298,-0.950835248,mol/L,107.156,1.5772199999999998,26.02,1.0,1.0
C[C@@H]1[C@@H](CN)C[C@H]2C[C@@H]1C2(C)C,water,298,-1.144304311,mol/L,167.296,2.2634000000000007,26.02,1.0,1.0
CCN(CC)c1ccc(cc1)C(c2ccc(cc2)N(CC)CC)c3c4cc(ccc4ccc3[S](O)(=O)=O)[S](O)(=O)=O,water,298,-0.698476149,mol/L,596.7710000000004,6.205800000000007,115.22,2.0,6.0
CCC(C)(C)O,water,298,0.126659691,mol/L,88.14999999999998,1.1673,20.23,1.0,1.0
[Rh+3].[O-][N+]([O-])=O.[O-][N+]([O-])=O.[O-][N+]([O-])=O,water,298,0.607411262,mol/L,288.918,-0.7198000000000002,198.6,0.0,9.0
COC(=O)CC#N,water,298,0.074751017,mol/L,99.08900000000001,0.07307999999999992,50.09,0.0,3.0
NC(N)=S,water,298,0.188516266,mol/L,76.124,-0.8113000000000001,52.04,2.0,1.0
OCCN1C(=O)N(CCO)C(=O)N(CCO)C1=O,water,298,0.64366814,mol/L,261.234,-3.851399999999997,126.69000000000003,3.0,9.0
COC(=O)OC,water,298,0.104944683,mol/L,90.078,0.3992,35.53,0.0,3.0
[Li+].[Na+].[Na+].[O-][S](=O)(=O)c1cc(NC(=O)c2ccccc2)c3C(=O)C(=N/Nc4ccc5c(CNc6nc(F)nc(F)c6Cl)cccc5c4[S]([O-])(=O)=O)/C(=Cc3c1)[S]([O-])(=O)=O,water,298,-0.890086508,mol/L,885.0980000000002,-5.203500000000006,279.9699999999999,3.0,16.0
[K+].OC([O-])=O,water,298,1.054501048,mol/L,100.11399999999999,-4.1083,60.36,1.0,2.0
Oc1cccc(O)c1,water,298,1.003488328,mol/L,110.11199999999998,1.0977999999999999,40.46,2.0,2.0
[Cl-].CCCCCCCCCCCCCCCC[n+]1ccccc1,water,298,-0.486149552,mol/L,339.99499999999995,3.4594000000000005,3.88,0.0,0.0
OCC1OC2OC3C(O)C(O)C(OC3CO)OC4C(O)C(O)C(OC4CO)OC5C(O)C(O)C(OC5CO)OC6C(O)C(O)C(OC6CO)OC7C(O)C(O)C(OC7CO)OC1C(O)C2O,water,298,-0.945468585,mol/L,972.8460000000007,-13.054800000000023,474.9000000000002,18.0,30.0
CCC(CO)(CO)COCC=C,water,298,-0.199755177,mol/L,174.23999999999995,0.57,49.69,2.0,3.0
CSCCC(O)C#N,water,298,-0.07654115,mol/L,131.2,0.62398,44.019999999999996,1.0,3.0
CC(C)=CC=O,water,298,0.116503747,mol/L,84.118,1.1515,17.07,0.0,1.0
[Li+].[OH-],water,298,0.662123436,mol/L,23.948,-3.1728,30.0,0.0,1.0
CC(C)CC(C)(O)C#C,water,298,-1.036597924,mol/L,126.19899999999997,1.4166999999999998,20.23,1.0,1.0
O=CC1CCC=CC1,water,298,-0.977550168,mol/L,110.15599999999999,1.5415999999999999,17.07,0.0,1.0
O=CC1CCC=CC1,water,298,-0.981310317,mol/L,110.15599999999999,1.5415999999999999,17.07,0.0,1.0
O=C1CC(=O)NC(=O)N1,water,298,-1.048661639,mol/L,128.087,-1.2575,75.27,2.0,3.0
O=C1CC(=O)NC(=O)N1,water,298,-1.048699567,mol/L,128.087,-1.2575,75.27,2.0,3.0
OCCCCCCCl,water,298,-1.082442195,mol/L,136.622,1.7779,20.23,1.0,1.0
N#CCCCCCCC#N,water,298,-1.081092287,mol/L,136.198,2.3741600000000007,47.58,0.0,2.0
CC(C)C1(C)N=C(NC1=O)c2ncccc2C(O)=O,water,298,-1.364029386,mol/L,261.281,1.0709,91.65,2.0,4.0
CC(C)C1(C)N=C(NC1=O)c2ncccc2C(O)=O,water,298,-1.36510685,mol/L,261.281,1.0709,91.65,2.0,4.0
CC\C=C/C#N,water,298,-0.859899212,mol/L,81.11800000000001,1.47618,23.79,0.0,1.0
[Mn++].CCCCC(CC)C(O)=O,water,298,-1.253861693,mol/L,199.152,2.2849,37.3,1.0,1.0
CCC(C)(C)OC,water,298,-0.967960462,mol/L,102.17699999999998,1.8214000000000001,9.23,0.0,1.0
C1C[NH+]=C(N1)c2ccccc2,water,298,-1.126518075,mol/L,147.201,-0.8829999999999987,26.0,2.0,1.0
OCC1CCC2C3CC(CC3CO)C12,water,298,-1.25150549,mol/L,196.29,1.2693999999999999,40.46,2.0,2.0
O[C@@H](C(O)=O)c1ccccc1,water,298,-0.141666762,mol/L,152.149,0.8046,57.53,2.0,2.0
COC1OC(CO)C(O)C(O)C1O,water,298,0.745212549,mol/L,194.18300000000002,-2.5673,99.38000000000001,4.0,6.0
[Na+].OC([O-])=O,water,298,0.112318589,mol/L,84.00599999999999,-4.1083,60.36,1.0,2.0
[Na+].[Na+].OC(=O)CN(CCN(CC(O)=O)CC([O-])=O)CC([O-])=O,water,298,-0.493184288,mol/L,336.2080000000001,-10.732600000000007,161.34,2.0,8.0
OCC#CCO.ClCC1CO1,water,298,0.777871543,mol/L,178.61499999999998,-0.4016000000000002,52.99,2.0,3.0
CC1CCOC1,water,298,0.090131249,mol/L,86.134,1.0428,9.23,0.0,1.0
[Cr+3].[O-][N+]([O-])=O.[O-][N+]([O-])=O.[O-][N+]([O-])=O,water,298,0.64563055,mol/L,238.00799999999998,-0.7198000000000002,198.6,0.0,9.0
CC(O)SC=C,water,298,0.005493119,mol/L,104.17399999999999,1.2013999999999998,20.23,1.0,2.0
[Na+].[Na+].Nc1ccc(N=Nc2ccc(cc2)N=Nc3c(N)c4C(=O)C(=N/Nc5ccccc5)/C(=Cc4cc3[S]([O-])(=O)=O)[S]([O-])(=O)=O)c(N)c1,water,298,-0.827397585,mol/L,705.6460000000003,-1.273399999999995,283.35999999999996,4.0,16.0
[Na+].[Na+].OC(=O)CN(CCN(CC(O)=O)CC([O-])=O)CC([O-])=O,water,298,-0.505418744,mol/L,336.2080000000001,-10.732600000000007,161.34,2.0,8.0
C[N+]([O-])=O,water,298,0.233501766,mol/L,61.040000000000006,-0.10710000000000008,43.14,0.0,2.0
[Sm+3].[O-][N+]([O-])=O.[O-][N+]([O-])=O.[O-][N+]([O-])=O,water,298,0.486017387,mol/L,336.3720000000001,-0.7173000000000003,198.6,0.0,9.0
[Al+3].[O-]C=O.[O-]C=O.[O-]C=O,water,298,-0.195082934,mol/L,162.033,-5.282499999999999,120.38999999999999,0.0,6.0
CCC(C)(O)C#C,water,298,0.016731992,mol/L,98.14499999999997,0.7806,20.23,1.0,1.0
NNC(=O)CCCCC(=O)NN,water,298,-0.232457951,mol/L,174.204,-1.473399999999999,110.24,4.0,4.0
OC(C(O)C(O)=O)C(O)=O,water,298,0.823659817,mol/L,150.08599999999998,-2.1226,115.06,4.0,4.0
COCCOC,water,298,1.045169179,mol/L,90.122,0.2792,18.46,0.0,2.0
C1COCCO1,water,298,1.054994515,mol/L,88.106,0.03320000000000001,18.46,0.0,2.0
CC(O)CNCC(C)O,water,298,0.87552512,mol/L,133.191,-0.6623999999999999,52.489999999999995,3.0,3.0
CN1CCCC1=O,water,298,1.003781751,mol/L,99.133,0.23859999999999992,20.310000000000002,0.0,1.0
CNC(N)=O,water,298,1.130281439,mol/L,74.083,-0.7155,55.12,2.0,1.0
OCCSCCO,water,298,0.91296789,mol/L,122.189,-0.2958,40.46,2.0,3.0
O.OC(=O)CC(O)(CC(O)=O)C(O)=O,water,298,0.677495406,mol/L,210.138,-2.0732,163.63,4.0,4.0
OCCOCCO,water,298,0.974198666,mol/L,106.121,-1.0124,49.69,2.0,3.0
CC(=C)C(=O)OCCN1CCNC1=O,water,298,0.702848146,mol/L,198.22199999999998,0.13090000000000007,58.64,1.0,3.0
[H+].[Cl-].CN(C)C(C)(C)CO,water,298,0.813458956,mol/L,153.653,-2.5645999999999973,23.47,1.0,2.0
CN(C)CCOC(=O)C(C)=C,water,298,0.803511545,mol/L,157.21299999999997,0.6672999999999998,29.54,0.0,3.0
NCCNCCO,water,298,0.982328216,mol/L,104.15299999999999,-1.4729999999999996,58.28,3.0,3.0
CN(CCO)CCO,water,298,0.923854927,mol/L,119.16399999999999,-1.0972000000000002,43.7,2.0,3.0
OCCOCCOCCO,water,298,0.823405251,mol/L,150.174,-0.9958000000000002,58.92,2.0,4.0
OCCN(CCO)CCO,water,298,0.826260286,mol/L,149.19,-1.734699999999999,63.93000000000001,3.0,4.0
OCCCl,water,298,1.094128597,mol/L,80.51400000000001,0.21749999999999997,20.23,1.0,1.0
OC(=O)CC#N,water,298,1.07026441,mol/L,85.06200000000001,-0.015319999999999945,61.089999999999996,1.0,2.0
OCCOC(=O)C=C,water,298,0.935107933,mol/L,116.11599999999999,-0.29210000000000025,46.53,1.0,3.0
CC(O)C#N,water,298,1.148258691,mol/L,71.07900000000001,-0.10922000000000004,44.019999999999996,1.0,2.0
CC(C)(O)C#C,water,298,1.075111062,mol/L,84.118,0.3905,20.23,1.0,1.0
CC(C)(C)N,water,298,1.135850982,mol/L,73.13900000000001,0.7436,26.02,1.0,1.0
CC(C)(C)O,water,298,1.130047012,mol/L,74.12299999999999,0.7771999999999999,20.23,1.0,1.0
Cc1ccccn1,water,298,1.03091506,mol/L,93.129,1.39002,12.89,0.0,1.0
OCCS,water,298,1.107148825,mol/L,78.136,-0.09150000000000003,20.23,2.0,2.0
CN(C)CCCO,water,298,0.986467618,mol/L,103.16499999999999,-0.06960000000000005,23.47,1.0,2.0
CO[S]([O-])(=O)=O.C[n+]1ccn(C=C)c1,water,298,0.657084083,mol/L,220.25,-0.49389999999999934,75.24000000000001,0.0,5.0
Oc1ccc(cc1)[S](O)(=O)=O,water,298,0.759009194,mol/L,174.177,0.6389000000000001,74.6,2.0,3.0
OCCCCOC(=O)C=C,water,298,0.841125102,mol/L,144.17,0.4881,46.53,1.0,3.0
CN(C)C(C)=O,water,298,1.059872163,mol/L,87.12199999999999,0.09450000000000003,20.310000000000002,0.0,1.0
CC(NC=O)C#N,water,298,1.008308858,mol/L,98.105,-0.35552,52.89,1.0,2.0
CCNCC,water,298,1.135850982,mol/L,73.139,0.6157999999999999,12.03,1.0,1.0
CNC(C)=O,water,298,1.13611233,mol/L,73.095,-0.24770000000000003,29.1,1.0,1.0
C1CN1,water,298,1.365835212,mol/L,43.068999999999996,-0.41040000000000004,21.94,1.0,1.0
CCC(O)CO,water,298,1.045169179,mol/L,90.122,-0.25039999999999996,40.46,2.0,2.0
C[C@@H](O)[C@H](C)O,water,298,1.045169179,mol/L,90.122,-0.252,40.46,2.0,2.0
NC1CCCCC1,water,298,1.003589033,mol/L,99.177,1.2778,26.02,1.0,1.0
NC1CC1,water,298,1.243394316,mol/L,57.096,0.10749999999999993,26.02,1.0,1.0
ClC(=O)C(Cl)=O,water,298,0.896449406,mol/L,126.926,0.5171999999999999,34.14,0.0,2.0
NC=O,water,298,1.346391976,mol/L,45.041,-0.8985000000000001,43.09,1.0,1.0
C[S](O)(=O)=O,water,298,1.017244979,mol/L,96.107,-0.49599999999999983,54.37,1.0,2.0
COC(=O)COCO,water,298,0.920442528,mol/L,120.104,-0.8742000000000003,55.760000000000005,1.0,4.0
CNN,water,298,1.336553508,mol/L,46.073,-0.9205000000000001,38.05,2.0,2.0
O=C1CCCCO1,water,298,0.999492173,mol/L,100.117,0.7135,26.3,0.0,2.0
CCCC(O)CO,water,298,0.982344896,mol/L,104.14899999999999,0.13970000000000005,40.46,2.0,2.0
OCCCCCO,water,298,0.982344896,mol/L,104.149,0.14130000000000004,40.46,2.0,2.0
[K+].O[C@H]([C@@H](O)C([O-])=O)C(O)=O,water,298,0.725435767,mol/L,188.17599999999996,-6.453299999999998,117.89000000000001,3.0,5.0
[Na+].[K+].O[C@H]([C@@H](O)C([O-])=O)C([O-])=O,water,298,0.677454073,mol/L,210.15799999999993,-10.783999999999999,120.72,2.0,6.0
OC(=O)C=C,water,298,1.142287662,mol/L,72.06300000000002,0.25700000000000006,37.3,1.0,1.0
CC(N)CN,water,298,1.130023576,mol/L,74.127,-0.7077,52.04,2.0,2.0
CCC(O)=O,water,298,1.130304889,mol/L,74.079,0.481,37.3,1.0,1.0
[Na+].[O-]C(=O)C(Cl)(Cl)Cl,water,298,0.731962893,mol/L,185.369,-2.8895,40.129999999999995,0.0,2.0
[Na+].[Na+].[Na+].[Na+].CC(O)CN(CC(C)O)c1nc(Nc2ccc(cc2)[S]([O-])(=O)=O)nc(Nc3ccc(/C=C/c4ccc(Nc5nc(Nc6ccc(cc6)[S]([O-])(=O)=O)nc(n5)N(CC(C)O)CC(C)O)cc4[S]([O-])(=O)=O)c(c3)[S]([O-])(=O)=O)n1,water,298,-0.086773993,mol/L,1221.1639999999998,-10.030200000000045,441.65999999999997,8.0,28.0
[I-].CCCC[N+](C)(CCCC)CCCC,water,298,0.485061956,mol/L,327.2940000000001,0.8372999999999999,0.0,0.0,0.0
OC(=O)C(F)(F)F,water,298,0.943011346,mol/L,114.02200000000002,0.6333,37.3,1.0,1.0
O=[S]1(=O)CCCO1,water,298,-0.086875694,mol/L,122.145,-0.26349999999999985,43.370000000000005,0.0,3.0
OC(=O)CCCC(O)=O,water,298,-0.120952129,mol/L,132.115,0.3259,74.6,2.0,2.0
[Na+].[Na+].Nc1ccc(\C=C\c2ccc(N)cc2[S]([O-])(=O)=O)c(c1)[S]([O-])(=O)=O,water,298,-0.617390402,mol/L,414.3720000000001,-5.162399999999995,166.43999999999997,2.0,8.0
[Na+].CCCCCCCCCCCCO[S]([O-])(=O)=O,water,298,-0.459972667,mol/L,288.385,0.38809999999999967,66.43,0.0,4.0
[Na+].[Na+].OC(=O)CN(CCN(CC(O)=O)CC([O-])=O)CC([O-])=O,water,298,-0.526608043,mol/L,336.2080000000001,-10.732600000000007,161.34,2.0,8.0
[Y+3].CC([O-])=O.CC([O-])=O.CC([O-])=O,water,298,-0.424943674,mol/L,266.03799999999995,-3.7338999999999976,120.38999999999999,0.0,6.0
Nc1cccc(c1)[S](O)(=O)=O,water,298,-1.20510658,mol/L,173.19299999999998,0.5155000000000001,80.39,2.0,3.0
COc1ccc2nccc(C(O)C3CC4CCN3CC4C=C)c2c1.O[S](O)(=O)=O,water,298,-1.592406042,mol/L,422.50300000000016,2.5204,120.19,3.0,6.0
OC(=O)c1cc(Br)nn1c2ncccc2Cl,water,298,-1.448934642,mol/L,302.515,2.3814,68.00999999999999,1.0,4.0
CCC(C)(C)OC,water,298,-0.979563677,mol/L,102.17699999999998,1.8214000000000001,9.23,0.0,1.0
O[P](O)(=O)c1ccccc1,water,298,-1.174098708,mol/L,158.093,0.4895999999999999,57.53,2.0,1.0
ClCCOCCCl,water,298,-1.138342178,mol/L,143.013,1.4806,9.23,0.0,1.0
CCC(C)(C)OC,water,298,-0.992319808,mol/L,102.17699999999998,1.8214000000000001,9.23,0.0,1.0
ClCCOCCCl,water,298,-1.146094633,mol/L,143.013,1.4806,9.23,0.0,1.0
ClCCOCCCl,water,298,-1.150624361,mol/L,143.013,1.4806,9.23,0.0,1.0
CC(=O)c1ccc(O)cc1,water,298,-1.134017646,mol/L,136.14999999999998,1.5948,37.3,1.0,2.0
CC(=O)C(O)c1ccccc1,water,298,-1.176603424,mol/L,150.177,1.309,37.3,1.0,2.0