Solute,Solvent,Temperature_K,Solubility,Units,MW,LogP,TPSA,HBD,HBA
[Cu++].CC([O-])=O.CC([O-])=O,water,298,-0.376672609,mol/L,181.634,-2.490099999999999,80.25999999999999,0.0,4.0
[Cu++].CC([O-])=O.CC([O-])=O,water,298,-0.377242176,mol/L,181.634,-2.490099999999999,80.25999999999999,0.0,4.0
[H+].[Cl-].CN(C)C,water,298,0.899333987,mol/L,95.57300000000001,-2.7056999999999984,3.24,0.0,1.0
S,water,298,1.344833531,mol/L,34.083,0.11280000000000001,0.0,0.0,0.0
CNC.OC(=O)COc1ccc(Cl)cc1Cl,water,298,0.449977221,mol/L,266.124,2.2924000000000007,58.56,2.0,3.0
COCCC(=O)OC,water,298,0.802693707,mol/L,118.13199999999999,0.19589999999999996,35.53,0.0,3.0
[K+].[O-]C#N,water,298,0.965960091,mol/L,81.11500000000001,-4.168220000000001,46.849999999999994,0.0,2.0
OCCCCOC=C,water,298,-0.18999534,mol/L,116.16,0.9189999999999999,29.46,1.0,2.0
[K+].[O-]P=O,water,298,0.862674821,mol/L,102.07,-3.4426,40.129999999999995,0.0,2.0
O.[Na+].[O-]P=O,water,298,0.854635653,mol/L,103.97699999999999,-4.267299999999999,71.63,0.0,2.0
CCCCOCC1CO1.CC(C)N.FB(F)F,water,298,-0.53795425,mol/L,257.10499999999996,2.4352,47.78,1.0,3.0
[Cl-].C(c1ccccc1)[P+](c2ccccc2)(c3ccccc3)c4ccccc4,water,298,-0.718824561,mol/L,388.87800000000004,2.1847000000000003,0.0,0.0,0.0
[Na+].[O-][S](=O)(=O)C(CC(=O)OC1CCCCC1)C(=O)OC2CCCCC2,water,298,-0.714701597,mol/L,384.4260000000002,-0.9538999999999949,109.8,0.0,7.0
CN(CCC#N)c1ccc(cc1)C=CC2=[N+](C)c3ccccc3C2(C)C.[O-][S]([O-])(=O)=O,water,298,-0.774172069,mol/L,440.5450000000002,3.417880000000002,110.29999999999998,0.0,6.0
CCCCO,water,298,-0.000721269,mol/L,74.12299999999999,0.7787999999999999,20.23,1.0,1.0
[Na+].NC(CCC(O)=O)C([O-])=O,water,298,0.640470013,mol/L,169.112,-5.067599999999998,103.44999999999999,2.0,4.0
[Cl-].N[C@@H](CS)C(O)=O.[H+],water,298,0.669703311,mol/L,157.622,-3.5553999999999983,63.32,3.0,3.0
[nH]1cncn1,water,298,1.024052268,mol/L,69.067,-0.19529999999999997,41.57,1.0,2.0
[Na+].[Na+].[O-][S](=O)(=O)OO[S]([O-])(=O)=O,water,298,0.486552521,mol/L,238.10599999999997,-8.136999999999999,132.85999999999999,0.0,8.0
[Na+].CC1=NN(C(=O)C1N=Nc2ccc(C)c(c2)[S](=O)(=O)Nc3ccccc3)c4ccc(cc4)[S]([O-])(=O)=O,water,298,-0.872552369,mol/L,549.5660000000001,0.5789200000000008,160.76,1.0,9.0
Cc1ccc(N)cc1,water,298,-0.163729155,mol/L,107.156,1.5772199999999998,26.02,1.0,1.0
OC(=O)C=C,water,298,0.00596733,mol/L,72.06300000000002,0.25700000000000006,37.3,1.0,1.0
CN,water,298,1.368643478,mol/L,31.058,-0.4251,26.02,1.0,1.0
[Na+].[O-]N1C=CC=CC1=S,water,298,0.684131264,mol/L,149.14999999999995,-1.4325099999999993,27.99,0.0,3.0
CCCC(C)=O,water,298,-0.074237995,mol/L,86.13399999999999,1.3755,17.07,0.0,1.0
Oc1ccc(O)cc1,water,298,-0.184502155,mol/L,110.11199999999998,1.0977999999999999,40.46,2.0,2.0
[Na+].[Fe+3].[O-]C(=O)CN(CCN(CC([O-])=O)CC([O-])=O)CC([O-])=O,water,298,-0.707389182,mol/L,367.04700000000014,-10.408500000000007,167.0,0.0,10.0
C=CC(=O)OC1C=CC2C3CCC(C3)C12,water,298,-3.708142472,mol/L,204.26899999999995,2.3163,26.3,0.0,2.0
Oc1cccc(O)c1,water,298,0.813684505,mol/L,110.11199999999998,1.0977999999999999,40.46,2.0,2.0
[Na+].[O-][S](=O)(=O)CC=C,water,298,0.694952865,mol/L,144.12699999999998,-3.2783999999999986,57.199999999999996,0.0,3.0
[Na+].[Na+].[Na+].[Na+].Cc1cc(Nc2nc(NCCO)nc(Nc3ccc(N=Nc4cc5c(cccc5[S]([O-])(=O)=O)c(c4)[S]([O-])(=O)=O)c(C)c3)n2)ccc1N=Nc6cc7c(cccc7[S]([O-])(=O)=O)c(c6)[S]([O-])(=O)=O,water,298,-1.174873472,mol/L,1066.954,-5.850560000000014,373.22999999999996,4.0,23.0
Oc1ccc(O)cc1,water,298,-0.190576302,mol/L,110.11199999999998,1.0977999999999999,40.46,2.0,2.0
COc1ccc2cc(oc2c1)C3N(C)c4cc(ccc4[NH+]3C)[S](C)(=O)=O.CC([O-])=O,water,298,0.212574469,mol/L,432.4980000000002,0.8958999999999997,104.32,1.0,7.0
[Na+].OCCN1CCN(CC1)CC[S]([O-])(=O)=O,water,298,0.431866679,mol/L,260.291,-4.854499999999995,83.91,1.0,6.0
NC(=O)[C@@H]1CCC[NH2+]1,water,298,0.785359758,mol/L,115.15600000000002,-1.8024999999999984,59.7,2.0,1.0
[nH]1cncn1,water,298,1.005827448,mol/L,69.067,-0.19529999999999997,41.57,1.0,2.0
[H+].[Br-],water,298,1.377544373,mol/L,80.91199999999999,-2.8835,0.0,0.0,0.0
[Na+].[O-]C=O,water,298,1.012544423,mol/L,68.007,-4.629899999999999,40.129999999999995,0.0,2.0
CC(=O)OCC(COC(C)=O)OC(C)=O,water,298,-0.493766658,mol/L,218.20499999999998,0.044299999999999784,78.9,0.0,6.0
CC(C)CO,water,298,-0.024854948,mol/L,74.12299999999999,0.6347,20.23,1.0,1.0
Oc1ccc(O)cc1,water,298,-0.196736611,mol/L,110.11199999999998,1.0977999999999999,40.46,2.0,2.0
CN=C=S,water,298,-0.96421568,mol/L,73.12,0.7190000000000001,12.36,0.0,2.0
ClCCCl,water,298,-1.097832595,mol/L,98.96000000000001,1.464,0.0,0.0,0.0
NC(CC(O)=O)C(O)=O,water,298,-1.229318187,mol/L,133.10299999999998,-1.127,100.62,3.0,3.0
[I-].CC[P+](c1ccccc1)(c2ccccc2)c3ccccc3,water,298,-1.727128194,mol/L,418.2580000000001,1.0044000000000004,0.0,0.0,0.0
[V],water,298,-0.814424958,mol/L,50.944,-0.0025,0.0,0.0,0.0
Nc1ccc(Nc2ccc(cc2[S](O)(=O)=O)[N+]([O-])=O)cc1,water,298,-1.59828953,mol/L,309.30300000000005,2.1673,135.56,3.0,6.0
CCOC=C,water,298,-0.965882825,mol/L,72.10700000000001,1.1664,9.23,0.0,1.0
[Cl-].Cn1c2ccccc2c(C=CC3=[N+](C)c4ccccc4C3(C)C)c1c5ccccc5,water,298,-1.743927996,mol/L,426.99100000000016,3.5687000000000033,7.9399999999999995,0.0,1.0
C1COC=CC1,water,298,-1.038398213,mol/L,84.118,1.3105,9.23,0.0,1.0
CC(C)(O)C(=O)c1ccc(OCCO)cc1,water,298,-1.471074866,mol/L,224.25599999999997,1.0112999999999999,66.76,2.0,4.0
CCCCCCC(O)CO,water,298,-1.289975217,mol/L,146.23,1.3099999999999998,40.46,2.0,2.0
CC(C)OC(=O)C(F)(F)F,water,298,-1.318349986,mol/L,156.10299999999998,1.5003000000000002,26.3,0.0,2.0
ClCl,water,298,-0.980864778,mol/L,70.906,1.379,0.0,0.0,0.0
CCN(C(C)C)C(C)C,water,298,-1.241602263,mol/L,129.24699999999999,2.1250999999999998,3.24,0.0,1.0
CN1C(=O)N(C)c2nc[nH]c2C1=O,water,298,-1.386443527,mol/L,180.16699999999997,-1.039700000000001,72.68,1.0,5.0
CCc1ccc(O)cc1,water,298,-1.21772219,mol/L,122.16699999999996,1.9546,20.23,1.0,1.0
Cc1ccc(N)cc1,water,298,-1.160784774,mol/L,107.156,1.5772199999999998,26.02,1.0,1.0
Cc1ccc(N)cc1,water,298,-1.161372055,mol/L,107.156,1.5772199999999998,26.02,1.0,1.0
[Na].Nc1cc(c(O)c2C(=O)c3c(N)cc(c(O)c3C(=O)c12)[S](O)(=O)=O)[S](O)(=O)=O,water,298,-1.799112619,mol/L,453.36200000000014,-0.8497999999999997,235.37999999999997,6.0,10.0
CC(C)OC(=O)C(F)(F)F,water,298,-1.336078753,mol/L,156.10299999999998,1.5003000000000002,26.3,0.0,2.0
[Na+].[Na+].CN=C1C=CC2=CC(=CC(=O)C2=C1NNc3ccc(NC(=O)C(Br)=C)cc3[S]([O-])(=O)=O)[S]([O-])(=O)=O,water,298,-1.947653209,mol/L,629.3780000000003,-4.804799999999993,196.98999999999998,3.0,11.0
[Na+].CCOc1ccc(C)cc1N=Nc2ccc(N=Nc3cccc(c3)[S]([O-])(=O)=O)c4ccccc24,water,298,-1.847135544,mol/L,496.5240000000002,4.285820000000004,115.87,0.0,8.0
OC(=O)\C=C\C(O)=O,water,298,-1.219629428,mol/L,116.07199999999999,-0.28819999999999985,74.6,2.0,2.0
CC(O)CN(CC(C)O)c1ccc(C)cc1,water,298,-1.5038218,mol/L,223.316,1.56302,43.7,2.0,3.0
CCCCOCCOCCOCCCC,water,298,-1.494029299,mol/L,218.33699999999993,2.636400000000001,27.69,0.0,3.0
CCO[S](=O)(=O)OCC,water,298,-1.342949719,mol/L,154.18699999999998,0.30420000000000014,52.60000000000001,0.0,4.0
[Na+].CN(Cc1ccc(Nc2cc(c(N)c3C(=O)c4ccccc4C(=O)c23)[S]([O-])(=O)=O)cc1)[S](=O)(=O)c5ccc(C)cc5,water,298,-1.942821991,mol/L,613.6490000000001,0.8250200000000025,166.76999999999998,2.0,9.0
[Mg].[Mg].[Mg].OC(=O)CC(O)(CC(O)=O)C(O)=O.OC(=O)CC(O)(CC(O)=O)C(O)=O,water,298,-1.814971134,mol/L,457.16100000000023,-3.6393999999999957,264.26,8.0,8.0
[K+].[O-]C(=O)C(F)(F)F,water,298,0.661069302,mol/L,152.112,-3.6973999999999987,40.129999999999995,0.0,2.0
[Na+].[Na+].[O-][P]([O-])(F)=O,water,298,0.684400587,mol/L,143.949,-7.2074,63.19,0.0,3.0
OC=O,water,298,1.175855294,mol/L,46.025,-0.29919999999999997,37.3,1.0,1.0
Oc1ccc(O)cc1,water,298,-0.199225411,mol/L,110.11199999999998,1.0977999999999999,40.46,2.0,2.0
[NH4+].[NH4+].OC(=O)CN(CCN(CC(O)=O)CC([O-])=O)CC([O-])=O,water,298,0.322699056,mol/L,326.3060000000001,-3.9881999999999973,234.33999999999997,4.0,8.0
[Li+].CC([O-])=O,water,298,1.014339154,mol/L,65.985,-4.2398,40.129999999999995,0.0,2.0
OC=O,water,298,1.169515116,mol/L,46.025,-0.29919999999999997,37.3,1.0,1.0
CCCCCCCCCCCC[N+](C)(C)CC(O)C[S]([O-])(=O)=O,water,298,0.286518104,mol/L,351.55300000000005,2.889800000000001,77.43,1.0,4.0
[Li+].[Li+].[O-]C(=O)CCCCC([O-])=O,water,298,-0.362988505,mol/L,158.008,-7.945400000000004,80.25999999999999,0.0,4.0
[Li+].[Li+].[O-]C(=O)CCCCCCCCC([O-])=O,water,298,-0.49495855,mol/L,214.11599999999996,-6.384999999999998,80.25999999999999,0.0,4.0
[Li+].[Li+].[O-]C(=O)CCCCCCCC([O-])=O,water,298,-0.465532642,mol/L,200.08899999999997,-6.7751,80.25999999999999,0.0,4.0
CC(=C)C=O,water,298,-0.010606155,mol/L,70.09100000000001,0.7614000000000001,17.07,0.0,1.0
Oc1cccc(O)c1,water,298,0.789395043,mol/L,110.11199999999998,1.0977999999999999,40.46,2.0,2.0
[K+].[Br-],water,298,0.755675434,mol/L,119.002,-5.992,0.0,0.0,0.0
Cc1ccc(cc1[S](O)(=O)=O)[N+]([O-])=O,water,298,0.492439953,mol/L,217.202,1.1499200000000003,97.50999999999999,1.0,4.0
[Cr+3].CC([O-])=O.CC([O-])=O.CC([O-])=O,water,298,0.469225609,mol/L,229.12799999999996,-3.7338999999999976,120.38999999999999,0.0,6.0
O[C@@H](C(O)=O)c1ccccc1Cl,water,298,-0.439027901,mol/L,186.594,1.458,57.53,2.0,2.0
COC(=O)\C=C/C(=O)OC,water,298,-0.330082437,mol/L,144.12599999999998,-0.11140000000000017,52.60000000000001,0.0,4.0
[Na+].[Na+].[O-][S](=O)(=O)c1ccc2c(C=CC(=O)/C2=N/Nc3ccc(N=Nc4ccc(Nc5ccccc5)c(c4)[S]([O-])(=O)=O)c6ccccc36)c1,water,298,-1.015630004,mol/L,697.6620000000001,0.22710000000000652,192.60999999999999,2.0,12.0
[I-].[Cs+],water,298,0.411226108,mol/L,259.80899999999997,-5.992,0.0,0.0,0.0
[Cl-].CN1C[NH+](C=C)C=C1,water,298,0.658580285,mol/L,146.621,-3.607099999999998,7.680000000000001,1.0,1.0
Cc1ccc(cc1[S](O)(=O)=O)[N+]([O-])=O,water,298,0.487262014,mol/L,217.202,1.1499200000000003,97.50999999999999,1.0,4.0
[Na+].[Na+].[Na+].OC(CC([O-])=O)(CC([O-])=O)C([O-])=O,water,298,0.412389995,mol/L,258.06899999999996,-14.240600000000002,140.62,1.0,7.0
[Na+].[O-]N=O,water,298,0.98465661,mol/L,68.99499999999999,-2.7453999999999996,52.49,0.0,3.0
[nH]1ccnc1,water,298,0.988500361,mol/L,68.079,0.40969999999999995,28.68,1.0,1.0
[Cl-].N[C@@H](CS)C(O)=O.[H+],water,298,0.621927102,mol/L,157.622,-3.5553999999999983,63.32,3.0,3.0
[Ru+3].[Ru+3].[Ru+3].CC([O-])=O.CC([O-])=O.CC([O-])=O.CC([O-])=O.CC([O-])=O.CC([O-])=O.CC([O-])=O,water,298,-0.03568317,mol/L,716.5180000000003,-8.714100000000014,280.90999999999997,0.0,14.0
CC(=O)CC(c1ccccc1)C2=C(O)Oc3ccccc3C2=O,water,298,-0.668621486,mol/L,308.333,3.609600000000002,67.50999999999999,1.0,4.0
CCCCO,water,298,-0.050409053,mol/L,74.12299999999999,0.7787999999999999,20.23,1.0,1.0
[Na+].[Na+].[O-][Mo]([O-])(=O)=O,water,298,0.502020447,mol/L,205.91599999999997,-8.610100000000001,80.25999999999999,0.0,4.0
[Cl].[Fe].[O-][S]([O-])(=O)=O,water,298,0.540234161,mol/L,187.361,-0.6509999999999998,80.25999999999999,0.0,4.0
[Cl-].[Cl-].[Cl-].[Fe+3],water,298,0.602851797,mol/L,162.204,-8.990499999999999,0.0,0.0,0.0
[Na+].[Na+].[Na+].[Na+].OCCN(CCO)c1nc(Nc2ccc(cc2)[S]([O-])(=O)=O)nc(Nc3ccc(\C=C\c4ccc(Nc5nc(Nc6ccc(cc6)[S]([O-])(=O)=O)nc(n5)N(CCO)CCO)c(c4)[S]([O-])(=O)=O)cc3[S]([O-])(=O)=O)n1,water,298,-0.253433444,mol/L,1165.0559999999998,-11.58420000000004,441.65999999999997,8.0,28.0
[Fe++].[O-][S]([O-])(=O)=O,water,298,0.631332711,mol/L,151.908,-1.3405,80.25999999999999,0.0,4.0
ClCC1CO1,water,298,-0.1480332,mol/L,92.525,0.624,12.53,0.0,1.0
[Na+].COc1ccc(cc1)N=Nc2ccc(cc2OC)N=Nc3cccc(c3)[S]([O-])(=O)=O,water,298,-0.83545917,mol/L,448.43600000000015,2.442700000000001,125.1,0.0,9.0
OC(CC(O)=O)C(O)=O,water,298,0.683249026,mol/L,134.08699999999996,-1.0934000000000001,94.83000000000001,3.0,3.0
[Na+].[O-]N1C=CC=CC1=S,water,298,0.637012443,mol/L,149.14999999999995,-1.4325099999999993,27.99,0.0,3.0
OC(=O)CC(O)(CC(O)=O)C(O)=O,water,298,0.524631613,mol/L,192.123,-1.2485,132.13000000000002,4.0,4.0
[Na+].OC[C@H](O)C1OC(=O)[C-](O)C1=O,water,298,0.511043092,mol/L,198.10599999999997,-5.257409999999997,104.06,3.0,6.0
[Cl-].[Cl-].[Ni++],water,298,0.694933378,mol/L,129.599,-5.9945,0.0,0.0,0.0
CCOCC,water,298,-0.057708292,mol/L,74.123,1.0428000000000002,9.23,0.0,1.0
[Na+].Cc1c(CNC(=O)CCl)c(C)c(Nc2cc(c(N)c3C(=O)c4ccccc4C(=O)c23)[S]([O-])(=O)=O)c(C)c1CNC(=O)CCl,water,298,-1.017551933,mol/L,669.519,0.3311600000000033,187.58999999999997,4.0,9.0
CCCCOCCOCCOC(C)=O,water,298,-0.504016111,mol/L,204.26599999999996,1.3828,44.760000000000005,0.0,4.0
CC(C)=CCO,water,298,-0.128994642,mol/L,86.134,0.9448999999999999,20.23,1.0,1.0
[Ca++].N[S]([O-])(=O)=O.N[S]([O-])(=O)=O,water,298,0.438861216,mol/L,232.25199999999998,-3.5702,166.43999999999997,2.0,6.0
NCCCCCCN,water,298,0.738903406,mol/L,116.20800000000001,0.46420000000000006,52.04,2.0,2.0
[Na+].OC[S]([O-])=O,water,298,0.731520726,mol/L,118.08899999999998,-4.180699999999999,60.36,1.0,3.0
[nH]1ccnc1,water,298,0.968390542,mol/L,68.079,0.40969999999999995,28.68,1.0,1.0
[Na+].N[C@@H](CC(O)=O)C([O-])=O,water,298,0.609927332,mol/L,155.08499999999998,-5.457699999999998,103.44999999999999,2.0,4.0
[Cl-].CC[N+](CC)(CC)Cc1ccccc1,water,298,0.441826868,mol/L,227.77900000000002,0.06710000000000149,0.0,0.0,0.0
[Li+].CC([O-])=O,water,298,0.979895328,mol/L,65.985,-4.2398,40.129999999999995,0.0,2.0
[Mn++].[O-][P]([O-])([O-])=O.[O-][P]([O-])([O-])=O,water,298,0.41039078,mol/L,244.87799999999996,-5.6517,172.5,0.0,8.0
CCC(C)(C)OO,water,298,-0.216594575,mol/L,104.14899999999997,1.6646,29.46,1.0,2.0
NCCc1ccccc1,water,298,-0.28238117,mol/L,121.18299999999995,1.1878,26.02,1.0,1.0
CCCCO,water,298,-0.06923591,mol/L,74.12299999999999,0.7787999999999999,20.23,1.0,1.0
COC(=O)CCCC(=O)OC,water,298,-0.404549105,mol/L,160.169,0.5026999999999999,52.60000000000001,0.0,4.0
CC1(C)CC(O)CC(C)(C)N1[O],water,298,0.562703544,mol/L,172.248,1.3457999999999999,43.37,1.0,2.0
[Na+].Cc1cccc2n[n-]nc12,water,298,0.605167428,mol/L,155.136,-2.100579999999998,39.88,0.0,2.0
NC(N)=O,water,298,1.016628187,mol/L,60.056,-0.9762000000000002,69.11,2.0,1.0
O=C1CCC(=O)O1,water,298,-0.201666274,mol/L,100.073,-0.15000000000000002,43.370000000000005,0.0,3.0
OB(O)O,water,298,0.004937559,mol/L,61.83300000000001,-2.0518,60.69,3.0,3.0
[Ca++].[Ca++].[Ca++].[O-]B([O-])[O-].[O-]B([O-])[O-],water,298,-0.580148931,mol/L,237.852,-9.038,138.35999999999999,0.0,6.0
[K].OB(O)O,water,298,-0.207866699,mol/L,100.93099999999998,-2.4326,60.69,3.0,3.0
[Ca++].CCC([O-])=O.CCC([O-])=O,water,298,-0.476934722,mol/L,186.21999999999994,-2.0881999999999987,80.25999999999999,0.0,4.0
OCC(CO)(CO)CO,water,298,-0.341616387,mol/L,136.147,-2.058,80.92,4.0,4.0
CC(C)C(O)=O,water,298,0.84598299,mol/L,88.10599999999998,0.727,37.3,1.0,1.0
CC(C)C(=O)OC(=O)C(C)C,water,298,0.591790232,mol/L,158.19699999999997,1.3681999999999999,43.370000000000005,0.0,3.0
[Cl-].N[C@@H](CS)C(O)=O.[H+],water,298,0.591963878,mol/L,157.622,-3.5553999999999983,63.32,3.0,3.0
[Na+].[O-]C(=O)[C@@H]1CCC(=O)N1,water,298,0.608204633,mol/L,151.097,-4.981099999999998,69.22999999999999,1.0,3.0
[Na+].[Na+].CCN(Cc1cccc(c1)[S]([O-])(=O)=O)c2ccc(cc2)[C+](c3ccc(cc3)N(CC)Cc4cccc(c4)[S]([O-])(=O)=O)c5ccccc5[S]([O-])(=O)=O,water,298,-0.113158037,mol/L,792.8650000000005,-0.5209099999999911,178.07999999999998,0.0,11.0
[Na+].[Na+].[O-][P](=O)=O,water,298,0.689301474,mol/L,124.951,-6.5574,57.199999999999996,0.0,3.0
CC1(C)C(O)C(C)(C)C1O,water,298,-0.373677588,mol/L,144.214,0.7742,40.46,2.0,2.0
[K+].[K+].[K+].OC(CC([O-])=O)(CC([O-])=O)C([O-])=O,water,298,0.296193785,mol/L,306.39300000000003,-14.240600000000002,140.62,1.0,7.0
OCCOCCOCCCNc1ccc(NCCCOCCOCCO)c2C(=O)c3ccccc3C(=O)c12,water,298,0.057188696,mol/L,530.6180000000004,2.116999999999999,135.58,4.0,10.0
CC(O)=O,water,298,1.001717808,mol/L,60.05200000000001,0.09089999999999993,37.3,1.0,1.0
OC(=O)CCC(=O)C(O)=O,water,298,0.614880073,mol/L,146.098,-0.49509999999999993,91.66999999999999,2.0,3.0
[Na+].[Na+].[O-][S](=O)(=O)CCCSSCCC[S]([O-])(=O)=O,water,298,0.228652636,mol/L,354.4040000000001,-5.753599999999996,114.39999999999998,0.0,8.0
COC(C)CCOC(C)=O,water,298,-0.381860211,mol/L,146.18599999999998,0.9744999999999999,35.53,0.0,3.0
CC(=C)C=O,water,298,-0.067511006,mol/L,70.09100000000001,0.7614000000000001,17.07,0.0,1.0
CC(C)C=O,water,298,-0.079826177,mol/L,72.107,0.8412999999999999,17.07,0.0,1.0
CC(C)O[P](S)(=S)OC(C)C,water,298,-0.552854708,mol/L,214.29199999999997,2.9907000000000012,18.46,1.0,3.0
CCN(C(C)C)C(C)C,water,298,-1.267565049,mol/L,129.24699999999999,2.1250999999999998,3.24,0.0,1.0
O=Cc1ccccc1,water,298,-1.183828806,mol/L,106.12399999999997,1.4990999999999999,17.07,0.0,1.0
CNC(=O)C(C)(C(C)C)C(C)C,water,298,-1.394867706,mol/L,171.28399999999996,2.0507,29.1,1.0,1.0
[Al+3].CCCC[O-].CCCC[O-].CCCC[O-],water,298,-1.553292796,mol/L,246.3269999999999,0.059600000000002096,69.17999999999999,0.0,3.0
ClC(Cl)=O,water,298,-1.160845842,mol/L,98.916,1.584,17.07,0.0,1.0
CCS,water,298,-0.960841369,mol/L,62.137,0.9360999999999999,0.0,1.0,1.0
OC(=O)CC1(CCCCC1)CC(O)=O,water,298,-1.47223405,mol/L,200.23399999999998,1.8863,74.6,2.0,2.0
[Sr],water,298,-1.113943352,mol/L,87.62,-0.3808,0.0,0.0,0.0
NC(=O)CC[C@H](NC(=O)C[NH3+])C([O-])=O,water,298,-0.194310278,mol/L,203.19799999999998,-4.271499999999999,139.96,3.0,4.0
[Li].[Na].[K].CC(C)(C)c1ccc(cc1)[S](=O)(=O)Nc2ccc3cc(ccc3c2)[S](=O)(=O)c4cc5N=C6C(=C7Oc8c(ccc(N)c8[S](O)(=O)=O)N=C7C(=C6Oc5c(c4N)[S](O)(=O)=O)Cl)Cl,water,298,-2.180765898,mol/L,1015.8759999999997,5.707100000000003,284.27,5.0,14.0
CCSC,water,298,-1.056973282,mol/L,76.164,1.3693,0.0,0.0,1.0
NC(CC(O)=O)C(O)=O,water,298,-1.30006201,mol/L,133.10299999999998,-1.127,100.62,3.0,3.0
O=C1CC(=O)NC(=O)N1,water,298,-1.283574599,mol/L,128.087,-1.2575,75.27,2.0,3.0
Cc1ccc(N)cc1,water,298,-1.207848414,mol/L,107.156,1.5772199999999998,26.02,1.0,1.0
O=Cc1ccccc1,water,298,-1.209572311,mol/L,106.12399999999997,1.4990999999999999,17.07,0.0,1.0
CCC(C)(OO)OOC(C)(CC)OO,water,298,-1.507773246,mol/L,210.22599999999994,2.1662,77.38000000000001,2.0,6.0
CN[C@@H](C)[C@@H](O)c1ccccc1,water,298,-1.405191317,mol/L,165.236,1.3278999999999999,32.26,2.0,2.0
c1ccc2ncccc2c1,water,298,-1.298221405,mol/L,129.16199999999998,2.2348,12.89,0.0,1.0
CCOC(=O)C(C)C,water,298,-1.255496889,mol/L,116.15999999999998,1.2055,26.3,0.0,2.0
S=[Sr],water,298,0.003660289,mol/L,119.68700000000001,0.26739999999999997,0.0,0.0,1.0
O=C1OC(=O)c2ccccc12,water,298,-1.364424933,mol/L,148.11699999999996,0.9972,43.370000000000005,0.0,3.0
Cl\C=C\Cl,water,298,-1.187180386,mol/L,96.94400000000002,1.9352,0.0,0.0,0.0
CC(=O)c1ccccc1,water,298,-1.292266915,mol/L,120.15099999999995,1.8892,17.07,0.0,1.0
Nc1cccc(Cl)c1,water,298,-1.319720963,mol/L,127.574,1.9222,26.02,1.0,1.0
c1ccc2ncccc2c1,water,298,-1.325093551,mol/L,129.16199999999998,2.2348,12.89,0.0,1.0
CC(=O)c1ccccc1,water,298,-1.294397555,mol/L,120.15099999999995,1.8892,17.07,0.0,1.0
CC(=O)c1ccccc1.CC(C)(O)c2ccccc2.Oc3ccccc3,water,298,-1.759306143,mol/L,350.458,5.1954000000000065,57.53,2.0,3.0
[Na+].[Na+].Nc1c2C(=O)c3ccccc3C(=O)c2c(cc1[S]([O-])(=O)=O)c4cc(c(N)c5C(=O)c6ccccc6C(=O)c45)[S]([O-])(=O)=O,water,298,-2.030180053,mol/L,648.5380000000004,-4.114999999999994,234.71999999999997,2.0,12.0
CCN1CCCCC1,water,298,-1.275710522,mol/L,113.20400000000001,1.4922,3.24,0.0,1.0
Cc1ccc(N)c(c1)[S](O)(=O)=O,water,298,-1.494200991,mol/L,187.22,0.82392,80.39,2.0,3.0
Nc1cccc(Cl)c1,water,298,-1.327610922,mol/L,127.574,1.9222,26.02,1.0,1.0
OC(=O)c1cc(C(O)=O)c(cc1C(O)=O)C(O)=O.C2CN=C(N2)c3ccccc3.C4CN=C(N4)c5ccccc5,water,298,-1.959467524,mol/L,546.5360000000003,2.5522,197.98,6.0,8.0
c1ccc2ncccc2c1,water,298,-1.332983511,mol/L,129.16199999999998,2.2348,12.89,0.0,1.0
O=C1NCCN1,water,298,0.840273374,mol/L,86.09400000000001,-0.7008000000000001,41.13,2.0,1.0
OC(=O)CC(O)(CC(O)=O)C(O)=O,water,298,0.488742347,mol/L,192.123,-1.2485,132.13000000000002,4.0,4.0
[O--].[O--].[O--].[Fe+3].[Fe+3],water,298,-3.726148307,mol/L,159.687,-0.3614,85.5,0.0,0.0
NCCCCCC(O)=O,water,298,0.651193758,mol/L,131.17499999999998,0.5901000000000001,63.32,2.0,2.0
[NH3+]O.[NH3+]O.[O-][S]([O-])(=O)=O,water,298,0.553426318,mol/L,164.13899999999998,-4.103,176.0,4.0,6.0
[Cl-].[Cl-].[Co++],water,298,0.654418336,mol/L,129.839,-5.9945,0.0,0.0,0.0
Oc1ccccc1O,water,298,0.724578196,mol/L,110.11199999999998,1.0977999999999999,40.46,2.0,2.0