Solute,Solvent,Temperature_K,Solubility,Units,MW,LogP,TPSA,HBD,HBA
CC(C)(C)c1ccc(cc1)C(O)=O,water,298,-3.577962337,mol/L,178.23099999999997,2.6823000000000006,37.3,1.0,1.0
Cc1ccccc1Cl,water,298,-3.430287819,mol/L,126.586,2.6484200000000007,0.0,0.0,0.0
[Cl-].[Cu+],water,298,-3.32353295,mol/L,98.999,-2.9985,0.0,0.0,0.0
[Ni++].[O-][Mo++]([O-])([O-])[O-],water,298,-1.672068062,mol/L,218.629,-4.761,92.24,0.0,4.0
Nc1cccc2ccc(cc12)[S](O)(=O)=O,water,298,-1.682279323,mol/L,223.253,1.6687000000000003,80.39,2.0,3.0
FC(F)C(F)(F)F,water,298,-1.416495791,mol/L,120.02000000000001,1.8137999999999999,0.0,0.0,0.0
Cc1cccc(O)c1C,water,298,-1.424196078,mol/L,122.16699999999999,2.0090399999999997,20.23,1.0,1.0
Cc1ccc(O)c(C)c1.Cc2ccc(C)c(O)c2.Cc3cc(C)cc(O)c3.Cc4ccc(O)cc4C.Cc5cccc(O)c5C.Cc6cccc(C)c6O,water,298,-2.202347328,mol/L,733.0020000000002,12.05423999999998,121.38000000000001,6.0,6.0
Oc1c(I)cc(Cl)c2cccnc12,water,298,-1.822256226,mol/L,305.502,3.1984000000000004,33.120000000000005,1.0,2.0
Cc1cccc(C)c1O,water,298,-1.424196078,mol/L,122.16699999999999,2.00904,20.23,1.0,1.0
C1CCc2ccccc2C1,water,298,-3.454733185,mol/L,132.20599999999996,2.5654000000000003,0.0,0.0,0.0
CCCCC(CC)C(=O)OOC(C)(C)C,water,298,-3.669517691,mol/L,216.32099999999997,3.4761000000000024,35.53,0.0,3.0
CC1C(CC2CC1C2(C)C)C=O,water,298,-3.558040393,mol/L,166.26399999999998,2.5036000000000005,17.07,0.0,1.0
Cc1cccc(O)c1C,water,298,-1.427037709,mol/L,122.16699999999999,2.0090399999999997,20.23,1.0,1.0
CC(C)(O)CCc1ccccc1,water,298,-1.555639677,mol/L,164.24800000000002,2.3901000000000003,20.23,1.0,1.0
COC,water,298,-0.004443943,mol/L,46.069,0.26260000000000006,9.23,0.0,1.0
CC(C)[C@@H]1CC[C@@H](C)C[C@H]1O,water,298,-2.53490799,mol/L,156.269,2.439500000000001,20.23,1.0,1.0
[Na+].[Na+].[O-]C(=O)CCC([O-])=O,water,298,0.449081811,mol/L,162.052,-8.725600000000002,80.25999999999999,0.0,4.0
CC(=O)Oc1ccc(cc1)[N+]([O-])=O,water,298,-2.599256825,mol/L,181.147,1.5200999999999998,69.44,0.0,4.0
CC(C)COC(=O)c1cc(N)c(Cl)c(N)c1,water,298,-2.727546625,mol/L,242.70599999999996,2.3171999999999997,78.34,2.0,4.0
CC(=O)c1oc2ccccc2c1,water,298,-2.548488397,mol/L,160.17199999999997,2.6354000000000006,30.21,0.0,2.0
CC[N+](CC)(CC(=O)Nc1c(C)cccc1C)Cc2ccccc2.[O-]C(=O)c3ccccc3,water,298,-0.996697453,mol/L,446.5910000000001,4.348840000000004,69.22999999999999,1.0,3.0
[Cl-].[NH3+]c1cc(cc(Cl)c1O)[N+]([O-])=O,water,298,-2.699029836,mol/L,225.03099999999998,-2.1687999999999996,91.00999999999999,2.0,3.0
CCC(O)COC1CCCCC1C(C)(C)C,water,298,-3.698734262,mol/L,228.37599999999995,3.378800000000002,29.46,1.0,2.0
Clc1ccc(Cl)c(Cl)c1,water,298,-3.602656377,mol/L,181.449,3.6468000000000007,0.0,0.0,0.0
Nc1nc(N)nc(Nc2nc(N)nc(N)n2)n1,water,298,-3.715366812,mol/L,235.215,-1.8710000000000013,193.45,5.0,11.0
C1CCc2ccccc2C1,water,298,-3.468038652,mol/L,132.20599999999996,2.5654000000000003,0.0,0.0,0.0
O=C1CCCCCCCCCCC1,water,298,-3.607590831,mol/L,182.30699999999996,3.8602000000000034,17.07,0.0,1.0
Nc1cccc(c1)C(F)(F)F,water,298,-1.559000847,mol/L,161.12599999999998,2.2876000000000003,26.02,1.0,1.0
N,water,298,1.416142821,mol/L,17.031,0.16199999999999998,35.0,1.0,1.0
CC(C)COC(=O)c1cc(N)c(Cl)c(N)c1,water,298,-2.737208748,mol/L,242.70599999999996,2.3171999999999997,78.34,2.0,4.0
CCCN(CCC)CCC,water,298,-2.508784416,mol/L,143.27399999999997,2.5184000000000006,3.24,0.0,1.0
CC(C)C1CCC(C)CC1OO,water,298,-2.588821642,mol/L,172.268,2.9368000000000007,29.46,1.0,2.0
OC(O)C(Cl)(Cl)Cl,water,298,0.428541789,mol/L,165.403,0.6672999999999998,40.46,2.0,2.0
CC(C)COC(=O)c1cc(N)c(Cl)c(N)c1,water,298,-2.738284824,mol/L,242.70599999999996,2.3171999999999997,78.34,2.0,4.0
OC1(CCCCC1)C(=O)c2ccccc2,water,298,-2.664780194,mol/L,204.26900000000003,2.5645000000000007,37.3,1.0,2.0
[O-][N+](=O)c1ccccc1Cl,water,298,-2.552996357,mol/L,157.55599999999998,2.2482000000000006,43.14,0.0,2.0
[H+].[H+].[Cl-].[Cl-].NNCc1ccccc1,water,298,-1.646789011,mol/L,195.09300000000005,-5.117099999999997,38.05,2.0,2.0
FCF,water,298,-1.072742717,mol/L,52.022999999999996,0.8829,0.0,0.0,0.0
CCOc1nc2cccc(C(O)=O)c2n1Cc3ccc(cc3)c4ccccc4c5n[nH]nn5,water,298,-6.497781397,mol/L,440.4630000000001,4.028600000000002,118.81,2.0,7.0
[O-][N+](=O)c1ccccc1Cl,water,298,-2.55398227,mol/L,157.55599999999998,2.2482000000000006,43.14,0.0,2.0
Clc1nc(Cl)nc(Cl)n1,water,298,-2.622338856,mol/L,184.413,1.8318000000000003,38.67,0.0,3.0
COc1cc(c(O)c(c1)C(C)(C)C)c2cc(OC)cc(c2O)C(C)(C)C,water,298,-6.776311258,mol/L,358.4780000000001,5.377000000000006,58.92,2.0,4.0
C[C@]1(Cn2ccnn2)[C@@H](N3[C@@H](CC3=O)[S]1(=O)=O)C(O)=O,water,298,-1.838461676,mol/L,300.296,-1.5231999999999979,122.46000000000001,1.0,7.0
CC(C)COC(=O)c1cc(N)c(Cl)c(N)c1,water,298,-2.746092353,mol/L,242.70599999999996,2.3171999999999997,78.34,2.0,4.0
CCCCCC(=O)OCC=C,water,298,-2.557262637,mol/L,156.22499999999997,2.2959000000000005,26.3,0.0,2.0
CN(C=O)c1ccccc1,water,298,-1.494780947,mol/L,135.16599999999997,1.2792,20.310000000000002,0.0,1.0
O=C1N[S](=O)(=O)c2ccccc12,water,298,-1.629428566,mol/L,183.18800000000002,0.11869999999999997,63.24,1.0,3.0
s1cnc2ccccc12,water,298,-1.497479325,mol/L,135.19099999999997,2.2963000000000005,12.89,0.0,2.0
Nc1ccc(cc1[S](O)(=O)=O)[S](O)(=O)=O,water,298,-1.770093003,mol/L,253.257,-0.23779999999999984,134.76,3.0,5.0
OCC=C,water,298,-1.130558152,mol/L,58.080000000000005,0.16469999999999996,20.23,1.0,1.0
CC(C)[C@@H]1CC[C@@H](C)C[C@@H]1O,water,298,-2.560404377,mol/L,156.269,2.439500000000001,20.23,1.0,1.0
COc1ccc(cc1[N+]([O-])=O)C(O)=O,water,298,-2.661319514,mol/L,197.146,1.3015999999999999,89.66999999999999,1.0,4.0
CC12CCC3C(CCC4=CC(=O)C=CC34C)C1CCC2=O,water,298,-2.820459609,mol/L,284.39900000000006,3.863400000000003,34.14,0.0,2.0
CC(C)(C)C(=O)OCCc1ccccc1,water,298,-3.67528009,mol/L,206.285,2.8184000000000013,26.3,0.0,2.0
CC(OC(C)=O)C1CCCCC1,water,298,-3.597623767,mol/L,170.25199999999992,2.518300000000001,26.3,0.0,2.0
CC(=O)CCC1=C(C)CCCC1(C)C,water,298,-3.655044576,mol/L,194.31799999999996,3.8822000000000036,17.07,0.0,1.0
CC(C)CCCC=C,water,298,-3.416586328,mol/L,112.216,2.9987000000000013,0.0,0.0,0.0
Nc1cccc(N)c1,water,298,0.598454863,mol/L,108.144,0.851,52.04,2.0,2.0
[Br-].CC[P+](c1ccccc1)(c2ccccc2)c3ccccc3,water,298,-0.937218529,mol/L,371.2580000000001,1.0044000000000004,0.0,0.0,0.0
COC(=O)c1ccccc1C(=O)OC,water,298,-1.655760624,mol/L,194.18599999999995,1.2597999999999998,52.60000000000001,0.0,4.0
OC(=O)CCl,water,298,1.653991578,mol/L,94.49700000000001,0.3098,37.3,1.0,1.0
CC[N+](CC)(CC(=O)Nc1c(C)cccc1C)Cc2ccccc2.[O-]C(=O)c3ccccc3,water,298,-1.020958606,mol/L,446.5910000000001,4.348840000000004,69.22999999999999,1.0,3.0
NC(CO)C(O)=O,water,298,0.60681514,mol/L,105.09299999999999,-1.6094000000000002,83.55000000000001,3.0,3.0
COC(=O)c1ccc(C)cc1,water,298,-2.548214494,mol/L,150.177,1.78162,26.3,0.0,2.0
CCCCCCO,water,298,-1.382910122,mol/L,102.17699999999999,1.559,20.23,1.0,1.0
O=C1NSc2ccccc12,water,298,-1.554210616,mol/L,151.18999999999997,1.5896,32.86,1.0,2.0
[Na+].[O-][N+](=O)c1cccc(c1)[S]([O-])(=O)=O,water,298,-1.729236163,mol/L,225.15699999999995,-2.4970999999999988,100.34,0.0,5.0
ClCC(Cl)C=C,water,298,-2.473653774,mol/L,124.99799999999999,2.0186,0.0,0.0,0.0
CC(C)C1CCC(C)CC1O,water,298,-2.570623543,mol/L,156.269,2.439500000000001,20.23,1.0,1.0
CC(C)[C@@H]1CC[C@@H](C)C[C@H]1O,water,298,-2.570623543,mol/L,156.269,2.439500000000001,20.23,1.0,1.0
C1CCc2ccccc2C1,water,298,-3.490823291,mol/L,132.20599999999996,2.5654000000000003,0.0,0.0,0.0
CCC(C)c1ccccc1,water,298,-3.499434776,mol/L,134.22199999999998,3.2001000000000017,0.0,0.0,0.0
CC/C(C)=C/CC/C(C)=C/C#N,water,298,-3.589641142,mol/L,163.26399999999998,3.592780000000002,23.79,0.0,1.0
CCCCCCC1(C)CCC(=O)O1,water,298,-2.643261824,mol/L,184.27899999999997,3.052500000000002,26.3,0.0,2.0
COC(C)(C)C,water,298,-0.323526854,mol/L,88.14999999999999,1.4313,9.23,0.0,1.0
[H+].[Mn++].Cc1cc(c(cc1Cl)N=Nc2c([O-])c(cc3ccccc23)C([O-])=O)[S]([O-])(=O)=O,water,298,-4.0627672,mol/L,473.75200000000024,2.6682200000000025,145.10999999999999,0.0,8.0
[Ca++].O[C@H]([C@@H](O)C(O)=O)C(O)=O,water,298,-2.664231088,mol/L,190.164,-2.5033999999999996,115.06,4.0,4.0
[Na+].Nc1ccc(cc1[S]([O-])(=O)=O)[N+]([O-])=O,water,298,-1.767738518,mol/L,240.17199999999994,-2.9148999999999985,126.36000000000001,1.0,6.0
CC(C)[C@@H]1CC[C@@H](C)C[C@H]1O,water,298,-2.581088976,mol/L,156.269,2.439500000000001,20.23,1.0,1.0
C[C@H]1CCC2(O)C(C)(C)C3CC[C@@]2(C)C1C3,water,298,-3.72590382,mol/L,222.37199999999996,3.6098000000000026,20.23,1.0,1.0
CCc1ccccc1.CCc2cc(CC)c(CC)cc2CC.CCC(C)(c3ccccc3)c4ccccc4.Cc5ccccc5.Cc6ccccc6c7ccccc7.Cc8cccc9ccccc89.C=Cc%10ccccc%10.C%11CCC(CC%11)c%12ccccc%12.C(Cc%13ccccc%13)c%14ccccc%14.c%15ccccc%15.c%16ccc(cc%16)c%17ccccc%17,water,298,-4.588176842,mol/L,1588.4030000000002,33.96896000000007,0.0,0.0,0.0
CO\N=C(C(=O)OC)/c1ccccc1COc2ccccc2C,water,298,-3.536992465,mol/L,313.353,3.097520000000002,57.120000000000005,0.0,5.0
CCCCCCCCCCN(C)C,water,298,-3.655220449,mol/L,185.355,3.6887000000000025,3.24,0.0,1.0
Clc1cccc(n1)C(Cl)(Cl)Cl,water,298,-3.761380869,mol/L,230.909,3.5617,12.89,0.0,1.0
CCC(C)(O)CCCC(C)C,water,298,-2.591984737,mol/L,158.28499999999997,2.973700000000002,20.23,1.0,1.0
C(NCc1ccccc1)c2ccccc2,water,298,-2.687630237,mol/L,197.28099999999998,2.9764000000000017,12.03,1.0,1.0
Cc1cccc2n[nH]nc12,water,298,-1.516963539,mol/L,133.15400000000002,1.26632,41.57,1.0,2.0
Nc1cc(cc(c1O)[S](O)(=O)=O)[N+]([O-])=O,water,298,-1.766205568,mol/L,234.18899999999996,0.12929999999999997,143.76000000000002,3.0,6.0
[Na+].[Na+].[Na+].[Na+].OCCN(CCO)c1nc(Nc2ccc(cc2)[S]([O-])(=O)=O)nc(Nc3ccc(\C=C\c4ccc(Nc5nc(Nc6ccc(cc6)[S]([O-])(=O)=O)nc(n5)N(CCO)CCO)c(c4)[S]([O-])(=O)=O)cc3[S]([O-])(=O)=O)n1,water,298,-0.46428681,mol/L,1165.0559999999998,-11.58420000000004,441.65999999999997,8.0,28.0
[Na+].[Na+].[O-]C(=O)c1ccccc1C2=C3C=CC(=O)C=C3Oc4cc([O-])ccc24,water,298,-0.973445373,mol/L,376.27500000000015,-3.9900999999999964,93.4,0.0,5.0
[H+].[Cl-].CC1=CC(C=CC1=N)=C(c2ccc(N)cc2)c3ccc(N)cc3,water,298,-1.926669074,mol/L,337.85400000000004,1.3052699999999988,75.89,3.0,3.0
COC(=O)c1ccccc1C(=O)OC,water,298,-1.686157925,mol/L,194.18599999999995,1.2597999999999998,52.60000000000001,0.0,4.0
[Cl-].CN(C)c1ccc(cc1)[C+](c2ccc(cc2)N(C)C)c3ccc(cc3)N(C)C,water,298,-2.008588463,mol/L,407.98900000000015,1.9077900000000012,9.72,0.0,3.0
CCCCCC1CCCC(=O)O1,water,298,-1.629032231,mol/L,170.25199999999998,2.6624000000000008,26.3,0.0,2.0
CCOC(=O)CC(=O)C(F)(F)F,water,298,-1.663024463,mol/L,184.11299999999997,1.0710000000000002,43.370000000000005,0.0,3.0
[O-][N+](=O)OCCOCCO[N+]([O-])=O,water,298,-1.690450821,mol/L,196.11499999999998,-0.5804,113.97000000000003,0.0,7.0
Clc1c(Cl)c(Cl)c2C(=O)OC(=O)c2c1Cl,water,298,-1.854149607,mol/L,285.89699999999993,3.6107999999999993,43.370000000000005,0.0,3.0
CC(=O)/C=C/C1C(=CCCC1(C)C)C,water,298,-2.68192381,mol/L,192.30199999999996,3.5141000000000027,17.07,0.0,1.0
OC(=O)CN(CCN(CC(O)=O)CC(O)=O)CC(O)=O,water,298,-2.863685612,mol/L,292.244,-2.0711999999999957,155.68,4.0,6.0
CC(CC=O)CC(C)(C)C,water,298,-2.550967859,mol/L,142.242,2.6477000000000013,17.07,0.0,1.0
Nc1ccc2c(O)cc(cc2c1)[S](O)(=O)=O,water,298,-2.776795586,mol/L,239.252,1.3743,100.62,3.0,4.0
[Ca++].CCCCCCC(O)CCCCCCCCCCC([O-])=O.CCCCCCC(O)CCCCCCCCCCC([O-])=O,water,298,-3.203459897,mol/L,639.0280000000001,7.55640000000001,120.72,2.0,6.0
O[Si](O)(c1ccccc1)c2ccccc2,water,298,-2.733020622,mol/L,216.312,0.22759999999999958,40.46,2.0,2.0
CCCCCOC(=O)CCCC,water,298,-3.624481304,mol/L,172.26799999999994,2.910000000000001,26.3,0.0,2.0
CC1=CC(=O)N(Cc2cccc(CN3C(=O)C=C(C)C3=O)c2)C1=O,water,298,-3.900334993,mol/L,324.33600000000007,1.3168,74.76,0.0,4.0
[Ni++].[O-]C(=O)C([O-])=O,water,298,-3.556228502,mol/L,146.71099999999998,-3.5163,80.25999999999999,0.0,4.0
CC1=CC(=O)N(Cc2cccc(CN3C(=O)C=C(C)C3=O)c2)C1=O,water,298,-3.901400747,mol/L,324.33600000000007,1.3168,74.76,0.0,4.0
[Ni++].[O-]C(=O)C([O-])=O,water,298,-3.558364731,mol/L,146.71099999999998,-3.5163,80.25999999999999,0.0,4.0
[Ca++].CCCCCCC(O)CCCCCCCCCCC([O-])=O.CCCCCCC(O)CCCCCCCCCCC([O-])=O,water,298,-4.199138523,mol/L,639.0280000000001,7.55640000000001,120.72,2.0,6.0
CC\C=C/CCOC(=O)c1ccccc1,water,298,-3.704897417,mol/L,204.26900000000003,3.1997000000000018,26.3,0.0,2.0
CNC(=S)NN,water,298,-3.417649303,mol/L,105.16600000000001,-1.0459999999999996,50.08,3.0,2.0
Clc1cccc(n1)C(Cl)(Cl)Cl,water,298,-3.760296488,mol/L,230.909,3.5617,12.89,0.0,1.0
COC(=O)c1ccc(c(N)c1)C(=O)OC,water,298,-3.718503765,mol/L,209.20099999999996,0.8420000000000001,78.62,1.0,5.0
Cc1ccc(Cl)cc1,water,298,-3.500325686,mol/L,126.586,2.6484200000000007,0.0,0.0,0.0
CCCC(CC)CCCCCCCN,water,298,-3.697625957,mol/L,199.38199999999995,4.112000000000003,26.02,1.0,1.0
OC1CCCCCCCCCCC1,water,298,-3.663519539,mol/L,184.32299999999995,3.652000000000003,20.23,1.0,1.0
OC(=O)CCCCCCCCCCC(O)=O,water,298,-3.76024149,mol/L,230.30399999999995,3.0566000000000013,74.6,2.0,2.0
COc1ccc(cc1O)[C@@H]2CC(=O)c3c(O)cc(O[C@@H]4O[C@H](CO[C@@H]5O[C@@H](C)[C@H](O)[C@@H](O)[C@H]5O)[C@@H](O)[C@H](O)[C@H]4O)cc3O2,water,298,-5.091126706,mol/L,610.5650000000003,-1.1566000000000003,234.28999999999996,8.0,15.0
CC1(C)CCC2OC23C(C)(C)C4CCC13C4,water,298,-4.6529288,mol/L,220.35599999999994,3.7703000000000033,12.53,0.0,1.0
CC(=O)CC(c1ccccc1)C2=C(O)Oc3ccccc3C2=O,water,298,-4.798823929,mol/L,308.333,3.609600000000002,67.50999999999999,1.0,4.0
CCCCCCCCCl,water,298,-4.48293493,mol/L,148.67700000000002,3.5857000000000028,0.0,0.0,0.0
O=[Co],water,298,-4.186247502,mol/L,74.932,-0.1213,17.07,0.0,1.0
CC(O)CSCCCCCCCCC(C)(C)C,water,298,-4.730940692,mol/L,260.4869999999999,4.877200000000005,20.23,1.0,2.0
CCCCCCCCCCCC(O)=O,water,298,-4.619583571,mol/L,200.32199999999997,3.991900000000002,37.3,1.0,1.0
CCCCc1nc(Cl)c(CO)n1Cc2ccc(cc2)c3ccccc3c4n[nH]nn4,water,298,-4.945016986,mol/L,422.9200000000001,4.2668000000000035,92.51,2.0,6.0
[O--].[O--].[O--].[Lu+3].[Lu+3],water,298,-4.918566536,mol/L,397.93100000000004,-0.3564,85.5,0.0,0.0
CCCCC(CC)COC(=O)CS,water,298,-4.635481621,mol/L,204.33499999999998,2.675800000000001,26.3,1.0,3.0
CC(C)(C)c1cccc(c1O)C(C)(C)C,water,298,-4.643387431,mol/L,206.32899999999995,3.987200000000003,20.23,1.0,1.0
CCC(C)(C)c1ccccc1,water,298,-4.50074592,mol/L,148.24899999999997,3.374200000000002,0.0,0.0,0.0
CC(CCC=O)C1C(=CCCC1(C)C)C,water,298,-4.653202091,mol/L,208.34499999999994,3.9841000000000033,17.07,0.0,1.0
CC(c1ccccc1)c2ccccc2,water,298,-4.596063687,mol/L,182.266,3.8384000000000027,0.0,0.0,0.0
CC1(C)C2CCC(C2)C1=C,water,298,-4.471540428,mol/L,136.238,2.9987000000000013,0.0,0.0,0.0
CC(CC1CCCC1=O)C2CCC(=CC2)C,water,298,-4.680367049,mol/L,220.35599999999997,4.128200000000004,17.07,0.0,1.0
CC\C=C/CCOC(=O)C\C=C/CC,water,298,-4.630140343,mol/L,196.29,3.242200000000002,26.3,0.0,2.0
CCCCOC(=O)CC(CC(=O)OCCCC)(OC(C)=O)C(=O)OCCCC,water,298,-4.95250228,mol/L,402.4840000000002,3.0984000000000016,105.2,0.0,8.0
CCCCCCCCCC(=O)OC,water,298,-4.626748523,mol/L,186.295,3.3001000000000023,26.3,0.0,2.0
[Pr+3].[Pr+3].[O-]C([O-])=O.[O-]C([O-])=O.[O-]C([O-])=O,water,298,-5.022027024,mol/L,461.84000000000026,-7.341000000000001,189.57,0.0,9.0
CCCCN(CCCC)C(=O)N(CCCC)CCCC,water,298,-4.820595497,mol/L,284.48799999999994,4.910800000000005,23.550000000000004,0.0,1.0
CO[C@]1(C)CCC23C[C@@H]1C(C)(C)[C@@H]2CC[C@H]3C,water,298,-4.74017718,mol/L,236.39899999999997,4.263900000000004,9.23,0.0,1.0
CC1(C)C2CCC(C2)C1=C,water,298,-4.511048969,mol/L,136.238,2.9987000000000013,0.0,0.0,0.0
CC(C)(c1cc(Br)c(O)c(Br)c1)c2cc(Br)c(O)c(Br)c2,water,298,-5.116405766,mol/L,543.875,6.4737000000000045,40.46,2.0,2.0
COc1ccc(cc1O)[C@@H]2CC(=O)c3c(O)cc(O[C@@H]4O[C@H](CO[C@@H]5O[C@@H](C)[C@H](O)[C@@H](O)[C@H]5O)[C@@H](O)[C@H](O)[C@H]4O)cc3O2,water,298,-5.167683809,mol/L,610.5650000000003,-1.1566000000000003,234.28999999999996,8.0,15.0
CC(C)(C)c1cccc(c1O)C(C)(C)C,water,298,-4.700718451,mol/L,206.32899999999995,3.987200000000003,20.23,1.0,1.0
COC1CCCCCCCCCCC1,water,298,-4.683590383,mol/L,198.34999999999994,4.306100000000004,9.23,0.0,1.0
CCOC1(C)CCC2C(=C)C1CCC2(C)C,water,298,-4.734296245,mol/L,222.37199999999996,4.184000000000004,9.23,0.0,1.0
CCN(CC)C(=S)SSC(=S)N(CC)CC,water,298,-4.860377549,mol/L,296.5520000000001,3.6212000000000026,6.48,0.0,4.0
Cc1ccc(N2C(=O)c3cccc4c(N)ccc(C2=O)c34)c(C)c1,water,298,-4.891655533,mol/L,316.3600000000001,3.8394400000000024,63.4,1.0,3.0
Cc1cc(cc(C)c1CC#N)C(C)(C)C,water,298,-4.70181183,mol/L,201.313,3.6670200000000026,23.79,0.0,1.0
CC(C)(c1ccccc1)c2ccc(O[P@]3OC[C@]4(CO3)CO[P@](OC4)Oc5ccc(cc5C(C)(C)c6ccccc6)C(C)(C)c7ccccc7)c(c2)C(C)(C)c8ccccc8,water,298,-7.231973426,mol/L,852.989,13.981799999999971,55.38000000000001,0.0,6.0
O=C1NC(=O)c2cccc3cccc1c23,water,298,-4.692831503,mol/L,197.19299999999998,1.7234,46.17,1.0,2.0
CCCC[Sn](=O)CCCC,water,298,-4.794038183,mol/L,248.94199999999995,3.0086000000000013,17.07,0.0,1.0
CCCC[Sn++]CCCC.CCCCC(CC)C([O-])=O.CCCCC(CC)C([O-])=O,water,298,-5.113404326,mol/L,519.3550000000005,5.032800000000004,80.25999999999999,0.0,4.0
CCCCCCCCCCCCO,water,298,-4.668243769,mol/L,186.33899999999997,3.8996000000000035,20.23,1.0,1.0
O=C1CCC2CCCCC2O1,water,298,-0.586560326,mol/L,154.209,1.8821999999999999,26.3,0.0,2.0
NC(CO)C(O)=O,water,298,-0.421690718,mol/L,105.09299999999999,-1.6094000000000002,83.55000000000001,3.0,3.0
COC(=O)c1ccc(C)cc1,water,298,-2.576720352,mol/L,150.177,1.78162,26.3,0.0,2.0
CC1CC(C)(C)OC(Cc2ccccc2)O1,water,298,-2.744685443,mol/L,220.312,3.159200000000002,18.46,0.0,2.0
N#Cc1ccccc1C#N,water,298,-2.511067288,mol/L,128.13399999999996,1.4299600000000001,47.58,0.0,2.0
Nc1ccccc1N,water,298,-0.439609879,mol/L,108.144,0.851,52.04,2.0,2.0
CCN(CC)CC,water,298,-0.410757921,mol/L,101.193,1.3481,3.24,0.0,1.0
Cc1cccc(O)c1C,water,298,-1.492561359,mol/L,122.16699999999999,2.0090399999999997,20.23,1.0,1.0
O=C1N[S](=O)(=O)c2ccccc12,water,298,-1.671832414,mol/L,183.18800000000002,0.11869999999999997,63.24,1.0,3.0
Nc1ccc(Cl)cc1,water,298,-1.514697566,mol/L,127.574,1.9222,26.02,1.0,1.0
[O-][N+](=O)OCCOCCO[N+]([O-])=O,water,298,-1.701446205,mol/L,196.11499999999998,-0.5804,113.97000000000003,0.0,7.0
[Na+].Cc1cc(ccc1N)[S]([O-])(=O)=O,water,298,-1.729501225,mol/L,209.20199999999997,-2.5146799999999985,83.22,1.0,4.0
[O-][N+](=O)c1cccc(Cl)c1,water,298,-2.60637034,mol/L,157.55599999999998,2.2482000000000006,43.14,0.0,2.0
CC(C)CCCC(C)CC#N,water,298,-3.587759138,mol/L,153.269,3.3624800000000024,23.79,0.0,1.0
[Ca++].[O-][Mo]([O-])(=O)=O,water,298,-3.703694345,mol/L,200.01399999999998,-2.9989,80.25999999999999,0.0,4.0
O=C1CCCCCN1C(=O)c2cccc(c2)C(=O)N3CCCCCC3=O,water,298,-3.958346195,mol/L,356.42200000000025,2.7722000000000016,74.76,0.0,4.0
CC(C)=CCC\C(C)=C\CCC(C)=O,water,298,-3.697448425,mol/L,194.31799999999996,4.048300000000003,17.07,0.0,1.0
FC(F)C(F)(F)F,water,298,-1.489304021,mol/L,120.02000000000001,1.8137999999999999,0.0,0.0,0.0
CC(C)C1(O)CCC(=CC1)C,water,298,-2.60097177,mol/L,154.25299999999996,2.5037000000000003,20.23,1.0,1.0
CCCCN(CCCC)CCCC,water,298,-2.681417001,mol/L,185.35499999999993,3.6887000000000025,3.24,0.0,1.0
Brc1ccccc1,water,298,-2.611596089,mol/L,157.01,2.4491000000000005,0.0,0.0,0.0
CCCCCC(=O)OCC=C,water,298,-2.610551759,mol/L,156.22499999999997,2.2959000000000005,26.3,0.0,2.0
CC(=O)Nc1ccc(cc1)[S](Cl)(=O)=O,water,298,-1.788830513,mol/L,233.676,1.5724999999999998,63.24,1.0,3.0
[Na+].Nc1cc(cc(c1[O-])[N+]([O-])=O)[N+]([O-])=O,water,298,-1.764813003,mol/L,221.10399999999996,-2.8371999999999993,135.36,1.0,6.0
Fc1ccc(cc1)C(=O)CCCCl,water,298,-2.722633923,mol/L,200.63999999999996,3.027400000000002,17.07,0.0,1.0
CCCCC,water,298,-3.272781625,mol/L,72.151,2.1965000000000003,0.0,0.0,0.0
OC(=O)CCCCCCCCC=C,water,298,-3.680466567,mol/L,184.27899999999997,3.3778000000000024,37.3,1.0,1.0
O=C(OCCOCCOC(=O)c1ccccc1)c2ccccc2,water,298,-3.91306428,mol/L,314.33700000000005,2.7170000000000005,61.830000000000005,0.0,5.0
O=C(OCCOCCOC(=O)c1ccccc1)c2ccccc2,water,298,-3.91419673,mol/L,314.33700000000005,2.7170000000000005,61.830000000000005,0.0,5.0
CC(C)[Si](OC(=O)C=C)(C(C)C)C(C)C,water,298,-4.943737963,mol/L,228.40799999999996,3.8911000000000033,26.3,0.0,2.0
OC(=O)c1ccc(cc1)[N+]([O-])=O,water,298,-2.644389217,mol/L,167.11999999999995,1.293,80.44,1.0,3.0
CC(C)OC(=O)CCC(=O)OC(C)C,water,298,-1.729316846,mol/L,202.25,1.6698,52.60000000000001,0.0,4.0