Solute,Solvent,Temperature_K,Solubility,Units,MW,LogP,TPSA,HBD,HBA
NC1=NC(=O)c2ncn(COCCO)c2N1,water,298,-2.1431,mol/L,225.20799999999997,-1.3318000000000003,119.05000000000001,3.0,7.0
Clc1cc(Cl)c(c(Cl)c1)c2ccc(Cl)c(Cl)c2Cl,water,298,-8.2399,mol/L,360.88200000000006,7.274000000000001,0.0,0.0,0.0
CC(C)C=CCC(O)=O,water,298,-1.1487,mol/L,128.171,1.6733,37.3,1.0,1.0
CSC(/C)=N/OC(=O)N(C)SN(C)C(=O)O\N=C(/C)SC,water,298,-4.0055,mol/L,354.4790000000001,3.079200000000002,83.8,0.0,9.0
CN1C=C(c2ccccc2)C(=O)C(=C1)c3cccc(c3)C(F)(F)F,water,298,-4.4384,mol/L,329.32099999999997,4.738100000000002,22.0,0.0,2.0
CCOc1ccccc1\C=C\C([O-])=O,water,298,-3.3248,mol/L,191.20599999999996,0.8483999999999998,49.36,0.0,3.0
Clc1ccc(Cl)c(c1)c2c(Cl)cc(Cl)cc2Cl,water,298,-7.47,mol/L,326.437,6.620600000000001,0.0,0.0,0.0
Clc1cc(Cl)c(c(Cl)c1)c2cc(Cl)c(Cl)cc2Cl,water,298,-8.1199,mol/L,360.88200000000006,7.274000000000001,0.0,0.0,0.0
Clc1cc(Cl)c(c(Cl)c1)c2cc(Cl)c(Cl)c(Cl)c2Cl,water,298,-8.68,mol/L,395.3270000000001,7.9274000000000004,0.0,0.0,0.0
CC(C)([S](C)(=O)=O)[S](C)(=O)=O,water,298,-1.4504,mol/L,200.28099999999998,-0.1882999999999999,68.28,0.0,4.0
CN1C=C(I)C=CC1=O,water,298,-0.0094,mol/L,235.024,0.9899,22.0,0.0,2.0
C[C@H](O)C(=O)Nc1c(I)c(C(=O)NC(CO)CO)c(I)c(C(=O)NC(CO)CO)c1I,water,298,-0.7443,mol/L,777.0880000000001,-1.0143000000000004,188.45,8.0,8.0
OC(c1ccc(Cl)cc1)(c2cncnc2)c3ccccc3Cl,water,298,-4.374,mol/L,331.202,4.0676000000000005,46.010000000000005,1.0,3.0
Clc1ccc(c(Cl)c1)C2(Cn3cncn3)OCCO2,water,298,-3.0031,mol/L,300.1450000000001,2.484700000000001,49.17,0.0,5.0
CCCC1COC(Cn2cncn2)(O1)c3ccc(Cl)cc3Cl,water,298,-3.4929,mol/L,342.2260000000001,3.653400000000003,49.17,0.0,5.0
CCC1COC(Cn2cncn2)(O1)c3ccc(Cl)cc3Cl,water,298,-3.613,mol/L,328.19900000000007,3.263300000000002,49.17,0.0,5.0
Clc1cccc(c1)c2c(Cl)cc(Cl)cc2Cl,water,298,-7.1547,mol/L,291.99199999999996,5.967200000000001,0.0,0.0,0.0
Clc1cc(Cl)c(c(Cl)c1)c2cccc(Cl)c2Cl,water,298,-7.3999,mol/L,326.437,6.620600000000001,0.0,0.0,0.0
CCO[P](=S)(OCC)Oc1cc(Cl)c(Cl)c(SC)c1,water,298,-6.0807,mol/L,361.25200000000007,5.391600000000003,27.69,0.0,5.0
OC(=O)[C@H]1CC[C@@H]([Se][Se]1)C(O)=O,water,298,-2.1053,mol/L,302.04600000000005,-0.15019999999999994,74.6,2.0,2.0
CCSC(C(O)=O)c1ccccc1,water,298,-1.5686,mol/L,196.27100000000002,2.5654000000000003,37.3,1.0,2.0
CON(C1CCCCC1)C(=O)c2cc(C)oc2C,water,298,-5.9231,mol/L,251.32599999999996,3.2327400000000024,42.68,0.0,3.0
O[S](=O)(=O)c1c[nH]cn1,water,298,0.1304,mol/L,148.143,-0.34359999999999985,83.05,2.0,3.0
CC(Br)C(=O)NCC(=O)NCC(O)=O,water,298,-0.9642,mol/L,267.079,-0.9131999999999998,95.5,3.0,3.0
FC(F)(F)c1cccc(c1)N2CC(CCl)C(Cl)C2=O,water,298,-3.949,mol/L,312.118,3.514400000000002,20.310000000000002,0.0,1.0
NC(=S)NC#N,water,298,-0.0049,mol/L,101.134,-0.6993199999999999,61.839999999999996,2.0,2.0
Clc1ccc(Oc2ccccc2Cl)cc1Cl,water,298,-5.199,mol/L,273.546,5.4391000000000025,9.23,0.0,1.0
CCC(=O)OC(C)C(=O)OC,water,298,-0.8622,mol/L,160.16899999999998,0.5010999999999999,52.60000000000001,0.0,4.0
CC(C)(SC(=O)N1CCCCC1)c2ccccc2,water,298,-4.1196,mol/L,263.40599999999995,4.260800000000003,20.310000000000002,0.0,2.0
CC(C)Cc1[nH]ccn1,water,298,-1.0488,mol/L,124.18699999999998,1.6081999999999999,28.68,1.0,1.0
CN1C=CSC1=Nc2ccc(C)cc2C,water,298,-3.163,mol/L,218.32500000000002,2.9358400000000016,17.29,0.0,3.0
CSC(=NC)N(C)C,water,298,-0.4401,mol/L,132.232,0.8968,15.6,0.0,2.0
Clc1cccc(c1Cl)c2c(Cl)cc(Cl)c(Cl)c2Cl,water,298,-8.48,mol/L,360.88200000000006,7.274000000000001,0.0,0.0,0.0
OCCNC(=O)c1cc(O)ccc1O,water,298,-0.5436,mol/L,197.19,-0.18009999999999998,89.79,4.0,4.0
Nc1c2cc(ccc2c(cc1[S](O)(=O)=O)[S](O)(=O)=O)[S](O)(=O)=O,water,298,-0.3188,mol/L,383.3810000000001,0.16209999999999997,189.12999999999997,4.0,7.0
CNC(=O)OCc1cccc(Cl)c1Cl,water,298,-3.1389,mol/L,234.082,2.849400000000001,38.33,1.0,2.0
CCCCN(C(N)=O)c1ccccc1,water,298,-1.2971,mol/L,192.26200000000003,2.3718000000000004,46.33,1.0,1.0
Clc1cc(Cl)c(c(Cl)c1)c2ccccc2Cl,water,298,-6.65,mol/L,291.9920000000001,5.967200000000002,0.0,0.0,0.0
CN(C)C(=O)SCCCCOc1ccccc1,water,298,-3.9266,mol/L,253.367,3.2604000000000024,29.540000000000003,0.0,3.0
Cc1c(Cl)cc(cc1Cl)C2=NNC(=O)C=C2,water,298,-5.5375,mol/L,255.10399999999998,3.0521200000000004,45.75,1.0,2.0
CCN(Cc1c(F)cccc1Cl)c2c(cc(cc2[N+]([O-])=O)C(F)(F)F)[N+]([O-])=O,water,298,-6.7799,mol/L,421.7340000000001,5.340800000000003,89.51999999999998,0.0,5.0
N#CCO/N=C(C#N)/c1ccccc1,water,298,-3.2899,mol/L,185.18600000000004,1.4544599999999999,69.16999999999999,0.0,4.0
OC(c1ccc(F)cc1)(c2cncnc2)c3ccccc3Cl,water,298,-4.083,mol/L,314.74700000000007,3.553300000000002,46.010000000000005,1.0,3.0
Clc1ccc(Oc2ccc(Cl)c(Cl)c2)cc1,water,298,-5.6603,mol/L,273.546,5.4391000000000025,9.23,0.0,1.0
CCCC(Br)(CCC)C(N)=O,water,298,-1.8281,mol/L,222.12599999999995,2.2055999999999996,43.09,1.0,1.0
COC(=O)[C@@H](C)N(C(=O)c1ccccc1)c2ccc(F)c(Cl)c2,water,298,-4.3219,mol/L,335.76200000000006,3.687400000000003,46.61,0.0,3.0
CC(C)OC(=O)[C@@H](C)N(C(=O)c1ccccc1)c2ccc(F)c(Cl)c2,water,298,-4.4817,mol/L,363.81600000000003,4.466000000000005,46.61,0.0,3.0
CC[C@H]1OC[C@@H](COc2ccc(Oc3ccccc3)cc2)O1,water,298,-4.7874,mol/L,300.35400000000004,4.009200000000003,36.92,0.0,4.0
CCCN1C(=O)N(C)c2ncn(C)c2C1=O,water,298,-1.2082,mol/L,222.24799999999996,-0.15630000000000055,61.82,0.0,6.0
ClCCN(Cl)CCCl,water,298,-1.9203,mol/L,176.474,1.9198,3.24,0.0,1.0
CCOc1ccc(cc1)C2(CC2(Cl)Cl)C(=O)OC(C#N)c3cccc(Oc4ccccc4)c3,water,298,-6.7243,mol/L,482.36300000000017,6.501080000000004,68.55,0.0,5.0
CCOC(=O)N1CCN(CC1)CN2CCN(CC2)C(=O)OCC,water,298,-0.8443,mol/L,328.41300000000007,0.4921000000000013,65.56,0.0,6.0
CCCCNC(=O)N1C=C(F)C(=O)NC1=O,water,298,-2.4464,mol/L,229.21099999999996,0.033499999999999974,83.96000000000001,2.0,4.0
CO[P](=S)(OC)SCC(=O)N(C(C)C)c1ccc(Cl)cc1,water,298,-4.4321,mol/L,367.86,4.331900000000004,38.77,0.0,5.0
CC1(C)C(C(=O)OC(C#N)c2cccc(Oc3ccccc3)c2)C1(C)C,water,298,-7.3941,mol/L,349.43000000000006,5.268980000000004,59.32000000000001,0.0,4.0
C[C@H](CCC(=O)NCC(O)=O)[C@H]1CCC2C3[C@@H](O)C[C@@H]4C[C@H](O)CC[C@]4(C)C3CC[C@]12C,water,298,-5.5225,mol/L,449.63200000000035,3.594100000000001,106.86000000000001,4.0,4.0
CCSC1=NN=C(C(=O)N1N)C(C)(C)C,water,298,-2.7353,mol/L,228.321,0.7615999999999996,73.8,1.0,6.0
FC(F)(F)Oc1ccc(NC(=O)NC(=O)c2ccccc2Cl)cc1,water,298,-7.1568,mol/L,358.7030000000001,4.200500000000002,67.43,2.0,3.0
NC(=O)COC(=O)c1ccccc1,water,298,-1.6405,mol/L,179.175,0.32869999999999977,69.39000000000001,1.0,3.0
CCNC(=O)COC(=O)c1ccccc1,water,298,-2.2373,mol/L,207.229,0.9794999999999998,55.4,1.0,3.0
CCN(CC)C(=O)COC(=O)c1ccccc1,water,298,-2.0706,mol/L,235.28300000000002,1.7117999999999998,46.61,0.0,3.0
CCNC(C)C(O)=O,water,298,0.6522,mol/L,117.14799999999998,0.06900000000000012,49.33,2.0,2.0
CN1C(=O)C(N)C(=S)N(C)C1=O,water,298,-1.117,mol/L,187.224,-0.8350999999999993,66.64,1.0,4.0
Clc1ccc(c(Cl)c1)c2ccc(Cl)c(Cl)c2Cl,water,298,-7.62,mol/L,326.437,6.620600000000001,0.0,0.0,0.0
S=C1N=CNc2nccnc12,water,298,-2.6471,mol/L,164.193,1.0823899999999997,54.46,1.0,4.0
CC(=O)OCC(C(OC(C)=O)c1ccccc1)[N+]([O-])=O,water,298,-3.972,mol/L,281.26400000000007,1.4992,95.74000000000001,0.0,6.0
CC(=O)OC[C@H]([C@@H](OC(C)=O)c1ccccc1)[N+]([O-])=O,water,298,-3.972,mol/L,281.26400000000007,1.4992,95.74000000000001,0.0,6.0
Clc1ccc(CN(C2CCCC2)C(=O)Nc3ccccc3)cc1,water,298,-6.0399,mol/L,328.84299999999996,5.316700000000004,32.34,1.0,1.0
CC(C)[C@@H](C(=O)O[C@@H](C#N)c1cccc(Oc2ccccc2)c1)c3ccc(Cl)cc3,water,298,-8.3221,mol/L,419.908,6.679980000000006,59.32000000000001,0.0,4.0
CCCC(Cn1cncn1)c2ccc(Cl)cc2Cl,water,298,-3.5903,mol/L,284.19,4.168800000000003,30.71,0.0,3.0
CC(C)Oc1cccc(NC(=O)c2ccccc2C(F)(F)F)c1,water,298,-4.6947,mol/L,323.31399999999996,4.744900000000003,38.33,1.0,2.0
CCOC(=O)C(C)Oc1ccc(Oc2oc3cc(Cl)ccc3n2)cc1,water,298,-5.6042,mol/L,361.78100000000006,4.603900000000003,70.79,0.0,6.0
Clc1cccc(Oc2ccc(Cl)c(Cl)c2)c1,water,298,-5.437,mol/L,273.546,5.439100000000002,9.23,0.0,1.0
CC1(C)[C@@H](C(Br)C(Br)(Br)Br)[C@H]1C(=O)O[C@H](C#N)c2cccc(Oc3ccccc3)c2,water,298,-6.9197,mol/L,665.0140000000001,7.4609800000000055,59.32000000000001,0.0,4.0
CCCC(Br)C(=O)NC(N)=O,water,298,-1.4278,mol/L,223.07,0.7449000000000001,72.19,2.0,2.0
CN(C)C1CCCC=CCC1,water,298,-1.6004,mol/L,153.26899999999998,2.4369000000000005,3.24,0.0,1.0
CNC(=O)Sc1ccc(O[S](C)(=O)=O)cc1,water,298,-2.7359,mol/L,261.32399999999996,1.4565,72.47,1.0,5.0
CC1(CCCC1=O)C#N,water,298,0.9095,mol/L,123.155,1.26928,40.86,0.0,2.0
Cc1cccc(C)c1N(Cn2cccn2)C(=O)CCl,water,298,-2.8102,mol/L,277.755,2.729440000000001,38.13,0.0,3.0
CCC(CC)(CC)NC(N)=O,water,298,-1.8191,mol/L,158.24499999999998,1.6235,55.12,2.0,1.0
CC(CN1CC(C)OC(C)C1)Cc2ccc(cc2)C(C)(C)C,water,298,-2.4821,mol/L,303.49000000000007,4.271900000000004,12.47,0.0,2.0
CC1(C)[C@@H](C=C(Cl)Cl)[C@H]1C(=O)OC(C#N)c2cccc(Oc3ccccc3)c2,water,298,-7.6194,mol/L,416.30400000000014,6.177980000000004,59.32000000000001,0.0,4.0
CC1(C)CNC(=NC1)N\N=C(/C=C/c2ccc(cc2)C(F)(F)F)\C=C\c3ccc(cc3)C(F)(F)F,water,298,-7.916,mol/L,494.48300000000006,6.381800000000005,48.78,2.0,4.0
Clc1cc2c(oc3c(Cl)c(Cl)c(Cl)c(Cl)c23)c(Cl)c1Cl,water,298,-11.4817,mol/L,409.31000000000006,8.159799999999999,13.14,0.0,1.0
CC(CN1C[C@H](C)O[C@H](C)C1)Cc2ccc(cc2)C(C)(C)C,water,298,-4.8487,mol/L,303.49000000000007,4.271900000000004,12.47,0.0,2.0
Brc1cc2oc3cc(Br)c(Br)cc3c2cc1Br,water,298,-6.8395,mol/L,483.77900000000005,6.636000000000001,13.14,0.0,1.0
CCCN(CCOc1c(Cl)cc(Cl)cc1Cl)C(=O)n2ccnc2,water,298,-4.0445,mol/L,376.67100000000005,4.602400000000004,47.36,0.0,4.0
CCOC(=O)CN(N=O)C(N)=O,water,298,0.7566,mol/L,175.144,-0.38840000000000025,102.06,1.0,5.0
Brc1ccc(Br)c(c1)c2cc(Br)c(Br)cc2Br,water,298,-9.7256,mol/L,548.692,7.166100000000003,0.0,0.0,0.0
O=C1NC=Cc2cccnc12,water,298,-1.1428,mol/L,146.14899999999997,0.9230999999999999,45.75,1.0,2.0
Clc1cc(Cl)c(cc1OCC#C)N2N=C3CCCCN3C2=O,water,298,-4.3251,mol/L,338.19400000000013,2.6891000000000007,49.05,0.0,5.0
CC1(C)C(\C=C(/Cl)C(F)(F)F)C1C(=O)OC(C#N)c2cccc(Oc3ccccc3)c2,water,298,-7.9541,mol/L,449.8560000000001,6.543980000000005,59.32000000000001,0.0,4.0
CC(=O)OCCN(CCC#N)c1ccc(cc1)N=Nc2sc3cc(ccc3n2)[N+]([O-])=O,water,298,-5.8031,mol/L,438.4690000000002,4.9030800000000045,134.08,0.0,10.0
Clc1cc(NC(=O)Nc2ccccc2)ccn1,water,298,-3.8028,mol/L,247.68500000000003,3.3790000000000004,54.02,2.0,2.0
Clc1ccc(c(Cl)c1)c2c(Cl)cccc2Cl,water,298,-6.65,mol/L,291.99199999999996,5.967200000000002,0.0,0.0,0.0
Clc1ccc(c(Cl)c1)c2c(Cl)ccc(Cl)c2Cl,water,298,-7.1694,mol/L,326.437,6.620600000000001,0.0,0.0,0.0
Clc1ccc(c(Cl)c1)c2cc(Cl)cc(Cl)c2Cl,water,298,-7.82,mol/L,326.437,6.620600000000001,0.0,0.0,0.0
Clc1cc(Cl)cc(c1)c2c(Cl)ccc(Cl)c2Cl,water,298,-7.95,mol/L,326.437,6.620600000000001,0.0,0.0,0.0
Clc1ccc(cc1)c2c(Cl)c(Cl)cc(Cl)c2Cl,water,298,-7.88,mol/L,326.437,6.6206000000000005,0.0,0.0,0.0
Clc1cc(Cl)cc(c1)c2cc(Cl)c(Cl)cc2Cl,water,298,-7.47,mol/L,326.437,6.620600000000001,0.0,0.0,0.0
Clc1ccc(Cl)c(c1)c2c(Cl)cc(Cl)c(Cl)c2Cl,water,298,-8.01,mol/L,360.88200000000006,7.274000000000001,0.0,0.0,0.0
Clc1cc(c(Cl)c(Cl)c1Cl)c2c(Cl)cccc2Cl,water,298,-8.13,mol/L,360.88200000000006,7.274000000000001,0.0,0.0,0.0
Clc1cc(Cl)c(Cl)c(c1)c2c(Cl)c(Cl)c(Cl)c(Cl)c2Cl,water,298,-9.42,mol/L,429.77200000000016,8.580799999999998,0.0,0.0,0.0
CCOC(=O)CNc1nc(Cl)nc(NC(C)C)n1,water,298,-2.5622,mol/L,273.72400000000005,1.3202999999999996,89.03,2.0,7.0
COc1ccc(NC(=N)Nc2ccc(OC)cc2)cc1,water,298,-2.7345,mol/L,271.32,3.1625700000000014,66.37,3.0,3.0
CC1(C)C(C=C(Cl)Cl)C1C(=O)OC(C#N)c2ccc(F)c(Oc3ccccc3)c2,water,298,-8.1607,mol/L,434.29400000000015,6.317080000000003,59.32000000000001,0.0,4.0
CC[S](=O)(=O)Oc1ccc2OCC(C)(C)c2c1,water,298,-2.9921,mol/L,256.323,2.0851,52.60000000000001,0.0,4.0
CC(=O)NC(=O)COC(=O)c1ccccc1,water,298,-2.4003,mol/L,221.21200000000002,0.5060999999999996,72.47,1.0,4.0
CCCOCC(=Nc1ccc(Cl)cc1C(F)(F)F)n2ccnc2,water,298,-1.4419,mol/L,345.752,4.560200000000004,39.41,0.0,4.0
Clc1ccc(Oc2ccccc2Cl)c(Cl)c1,water,298,-4.9499,mol/L,273.546,5.4391000000000025,9.23,0.0,1.0
CC(C)N1C(=O)N(CSC1=NC(C)(C)C)c2ccccc2,water,298,-5.5307,mol/L,305.447,4.1822000000000035,35.910000000000004,0.0,3.0
Nc1c(Cl)c(F)nc(OCC(O)=O)c1Cl,water,298,-3.4475,mol/L,255.03199999999998,1.5731,85.44,2.0,4.0
CC(C)C(Nc1ccc(cc1Cl)C(F)(F)F)C(=O)OC(C#N)c2cccc(Oc3ccccc3)c2,water,298,-8.0025,mol/L,502.9200000000002,7.395680000000005,71.35,1.0,5.0
OCC(Cl)(Cl)Br,water,298,-0.4424,mol/L,193.85500000000002,1.505,20.23,1.0,1.0
Clc1cccc(c1)N(C2CCOC2=O)C(=O)C3CC3,water,298,-2.6878,mol/L,279.723,2.3985000000000003,46.61,0.0,3.0
CC(CC(C)(C(O)=O)C(O)=O)C(O)=O,water,298,-0.1086,mol/L,204.17799999999997,0.2727,111.9,3.0,3.0
OC(=O)c1occ(Cl)c1Cl,water,298,-1.8263,mol/L,180.974,2.2846,50.44,1.0,2.0
Clc1cc(Cl)cc(c1)c2c(Cl)c(Cl)c(Cl)c(Cl)c2Cl,water,298,-9.1,mol/L,395.3270000000001,7.9274000000000004,0.0,0.0,0.0
COC(=O)C(C)Oc1ccc(Oc2ncc(cc2Cl)C(F)(F)F)cc1,water,298,-4.6064,mol/L,375.73,4.486400000000002,57.650000000000006,0.0,5.0
CCCCOC(=O)C(C)Oc1ccc(Oc2ccc(cn2)C(F)(F)F)cc1,water,298,-5.5836,mol/L,383.366,5.003300000000004,57.650000000000006,0.0,5.0
COC(=O)c1ccc(C)cc1C2=NC(C)(C(C)C)C(=O)N2,water,298,-2.53,mol/L,288.347,2.07272,67.75999999999999,1.0,4.0
COC(=O)c1cc(C)ccc1C2=NC(C)(C(C)C)C(=O)N2,water,298,-2.3262,mol/L,288.347,2.07272,67.75999999999999,1.0,4.0
CC(C)C(C(=O)OC(C#N)c1cccc(Oc2ccccc2)c1)c3ccc(OC(F)F)cc3,water,298,-6.8765,mol/L,451.46900000000005,6.627980000000005,68.55000000000001,0.0,5.0
CCCCCCCCOC(=O)c1cccnc1,water,298,-3.0929,mol/L,235.32700000000003,3.598900000000002,39.19,0.0,3.0
Clc1ccc(Cl)c(c1)c2cccc(Cl)c2Cl,water,298,-6.2301,mol/L,291.9920000000001,5.967200000000002,0.0,0.0,0.0
Clc1ccccc1c2cc(Cl)c(Cl)cc2Cl,water,298,-7.2505,mol/L,291.99199999999996,5.967200000000001,0.0,0.0,0.0
Clc1ccccc1c2cc(Cl)c(Cl)c(Cl)c2,water,298,-6.9069,mol/L,291.99199999999996,5.967200000000001,0.0,0.0,0.0
Clc1ccc(Cl)c(c1)c2cc(Cl)c(Cl)c(Cl)c2,water,298,-7.3149,mol/L,326.437,6.620600000000001,0.0,0.0,0.0
[H+].[H+].[Cl-].[Cl-].OCCNCCNc1ccc(NCCNCCO)c2C(=O)c3c(O)ccc(O)c3C(=O)c12,water,298,-1.8388,mol/L,517.4100000000003,-5.906200000000003,163.18,8.0,10.0
CCSC(=S)NC(C)C(O)=O,water,298,-1.2343,mol/L,193.293,1.0871,49.33,2.0,3.0
ClCCN(CCCl)[P]1(=O)NCCCCO1,water,298,-0.9624,mol/L,275.11600000000004,2.2741,41.57000000000001,1.0,2.0
CCCc1sc(N[S](=O)(=O)c2ccc(N)cc2)nn1,water,298,-3.3075,mol/L,298.393,1.8736000000000002,97.97,2.0,6.0
CCOC(=O)[C@@H](C)Oc1ccc(Oc2oc3cc(Cl)ccc3n2)cc1,water,298,-5.6042,mol/L,361.78100000000006,4.603900000000003,70.79,0.0,6.0
Cn1nc(C)c(C(=O)c2ccc(Cl)cc2Cl)c1OCC(=O)c3ccccc3,water,298,-2.6514,mol/L,403.26500000000016,4.528020000000003,61.190000000000005,0.0,5.0
COC(=O)C(C)N(C(=O)Cc1ccccc1)c2c(C)cccc2C,water,298,-3.9442,mol/L,325.4080000000001,3.440640000000002,46.61,0.0,3.0
CC1(C)C(C=C(Cl)Cl)C1C(=O)OC(C#N)c2cccc(Oc3ccccc3)c2,water,298,-6.5587,mol/L,416.30400000000014,6.177980000000004,59.32000000000001,0.0,4.0
NC(=O)C(=NO)C(N)=O,water,298,-0.0384,mol/L,131.091,-2.2128,118.77000000000001,3.0,4.0
OC(=O)C(Br)=C(Br)Br,water,298,-1.3593,mol/L,308.751,2.4248000000000003,37.3,1.0,1.0
OC(=O)C(Br)=C(Br)I,water,298,-1.0197,mol/L,355.751,2.4649,37.3,1.0,1.0
CC[S](=O)(=O)N[S](=O)(=O)CC,water,298,0.5413,mol/L,201.26899999999998,-0.7245999999999999,80.31,1.0,4.0
CCOC(=O)C1(C)OC(=O)N(C1=O)c2cc(Cl)cc(Cl)c2,water,298,-4.0162,mol/L,332.139,2.798400000000001,72.91,0.0,5.0
[O-][n+]1nc(nc2ccc(Cl)cc12)n3ccnc3,water,298,-3.8624,mol/L,247.645,1.1022999999999996,70.53999999999999,0.0,5.0
CCOC(=O)NCCOc1ccc(Oc2ccccc2)cc1,water,298,-4.7009,mol/L,301.34200000000004,3.6038000000000023,56.790000000000006,1.0,4.0
CCCCN(CCOC(C)=O)c1ccc(N=Nc2c(cc(cc2C#N)[N+]([O-])=O)C#N)c(C)c1,water,298,-8.8809,mol/L,448.48300000000023,5.2315800000000054,144.98,0.0,9.0
FC(F)(F)c1nc(Cl)sc1C(=O)OCc2ccccc2,water,298,-5.8085,mol/L,321.70700000000005,4.172300000000003,39.19,0.0,4.0
CC=Cc1ccc(O)c(O)c1,water,298,-1.3505,mol/L,150.177,2.1309000000000005,40.46,2.0,2.0
CC(C)=CC1C(C(=O)OCN2C(=O)CN(CC#C)C2=O)C1(C)C,water,298,-3.5321,mol/L,318.37300000000005,1.6229,66.92,0.0,4.0
CN(C(=O)COc1sc2ccccc2n1)c3ccccc3,water,298,-4.8727,mol/L,298.367,3.3381000000000016,42.43000000000001,0.0,4.0
Clc1cccc(c1)c2cc(Cl)c(Cl)cc2Cl,water,298,-7.1299,mol/L,291.99199999999996,5.967200000000001,0.0,0.0,0.0
Clc1ccccc1c2c(Cl)c(Cl)cc(Cl)c2Cl,water,298,-7.3999,mol/L,326.437,6.6206000000000005,0.0,0.0,0.0
Clc1ccc(c(Cl)c1Cl)c2c(Cl)cccc2Cl,water,298,-6.7798,mol/L,326.437,6.620600000000001,0.0,0.0,0.0
CCCCCCOC(=O)C(C)OC(=O)C(C)O,water,298,-2.4884,mol/L,246.303,1.4223999999999999,72.83,1.0,5.0
Cc1cc(C)nc(n1)C(N)=O,water,298,0.1216,mol/L,151.16899999999998,0.19234000000000007,68.87,1.0,3.0
Fc1ccc(cc1)C(=O)C2CCN(CC2)CCN3C(=O)Nc4ccccc4C3=O,water,298,-4.5971,mol/L,395.4340000000001,2.4238,75.17,1.0,5.0
Nc1c(Cl)c(Oc2ccccc2)ccc1[N+]([O-])=O,water,298,-5.0248,mol/L,264.668,3.622700000000001,78.38999999999999,1.0,4.0
CCOc1ccc(NC(=O)NN)cc1,water,298,-1.6471,mol/L,195.222,1.0804999999999998,76.38,3.0,3.0
Clc1ccccc1c2nnc(nn2)c3ccccc3Cl,water,298,-5.4817,mol/L,303.15200000000004,3.907400000000001,51.56,0.0,4.0
COC(=O)c1ccccc1[S](=O)(=O)NC(=O)Nc2nc(C)cc(C)n2,water,298,-3.1742,mol/L,364.3830000000001,1.39044,127.35,2.0,7.0
Clc1cccc(c1)c2ccc(Cl)c(Cl)c2Cl,water,298,-6.77,mol/L,291.99199999999996,5.967200000000001,0.0,0.0,0.0
Clc1ccc(cc1)c2cc(Cl)cc(Cl)c2Cl,water,298,-6.77,mol/L,291.99199999999996,5.967200000000001,0.0,0.0,0.0
Clc1cccc(c1)c2c(Cl)c(Cl)cc(Cl)c2Cl,water,298,-7.76,mol/L,326.437,6.6206000000000005,0.0,0.0,0.0
Clc1ccc(cc1)c2cc(Cl)c(Cl)c(Cl)c2Cl,water,298,-7.3102,mol/L,326.437,6.6206000000000005,0.0,0.0,0.0
Clc1ccc(cc1)c2c(Cl)cc(Cl)c(Cl)c2Cl,water,298,-7.95,mol/L,326.437,6.6206000000000005,0.0,0.0,0.0
Clc1ccc(cc1Cl)c2c(Cl)cc(Cl)c(Cl)c2Cl,water,298,-7.6505,mol/L,360.88200000000006,7.274,0.0,0.0,0.0
Clc1ccc(cc1Cl)c2c(Cl)c(Cl)cc(Cl)c2Cl,water,298,-8.48,mol/L,360.88200000000006,7.274,0.0,0.0,0.0
Clc1ccc(Cl)c(c2cc(Cl)c(Cl)c(Cl)c2)c1Cl,water,298,-8.27,mol/L,360.88200000000006,7.274000000000001,0.0,0.0,0.0
Clc1cc(Cl)cc(c1)c2c(Cl)c(Cl)cc(Cl)c2Cl,water,298,-8.2696,mol/L,360.88200000000006,7.274000000000001,0.0,0.0,0.0
Clc1ccc(c(Cl)c1)c2c(Cl)c(Cl)c(Cl)c(Cl)c2Cl,water,298,-8.9706,mol/L,395.3270000000001,7.9274000000000004,0.0,0.0,0.0
Clc1cc(Cl)c(c2cc(Cl)c(Cl)c(Cl)c2)c(Cl)c1Cl,water,298,-9.1,mol/L,395.3270000000001,7.9274000000000004,0.0,0.0,0.0
Clc1cc(Cl)c(c(Cl)c1)c2c(Cl)c(Cl)c(Cl)c(Cl)c2Cl,water,298,-9.48,mol/L,429.77200000000016,8.580799999999998,0.0,0.0,0.0
Clc1cc(cc(Cl)c1Cl)c2c(Cl)c(Cl)c(Cl)c(Cl)c2Cl,water,298,-9.6997,mol/L,429.77200000000016,8.580799999999998,0.0,0.0,0.0
Clc1cc(Cl)c(c(Cl)c1)c2c(Cl)c(Cl)cc(Cl)c2Cl,water,298,-8.4901,mol/L,395.3270000000001,7.9274000000000004,0.0,0.0,0.0
Brc1ccc(Br)c(C=O)c1,water,298,-3.8003,mol/L,263.91599999999994,3.0241000000000007,17.07,0.0,1.0
O[S](=O)(=O)C(Cl)[S](O)(=O)=O,water,298,0.6765,mol/L,210.61599999999999,-0.7155999999999996,108.73999999999998,2.0,4.0
CC(C)(C)C(Br)C(=O)NC(C)(C)c1ccccc1,water,298,-4.9455,mol/L,312.251,3.847500000000003,29.1,1.0,1.0
Clc1cccc(c1Cl)c2c[nH]cc2C#N,water,298,-4.6937,mol/L,237.089,3.8601800000000015,39.58,1.0,1.0
N#CC(=N\OCC1OCCO1)/c2ccccc2,water,298,-4.0649,mol/L,232.239,1.3037800000000002,63.84,0.0,5.0
CC(C)(C)C(O)C(Cc1ccc(Cl)cc1Cl)n2cncn2,water,298,-4.5619,mol/L,328.243,3.7757000000000023,50.94,1.0,4.0
CCOC(=O)[C@H](CCc1ccccc1)N[C@@H](C)C(=O)N2CCC[C@H]2C(O)=O,water,298,-1.3609,mol/L,376.45300000000026,1.6046,95.94,2.0,5.0
CCO[P](=O)(Cc1ccc(cc1)c2sc3ccccc3n2)OCC,water,298,-4.0017,mol/L,361.40300000000013,5.7294000000000045,48.42,0.0,5.0
CCN1CC(=O)N=C1N,water,298,-0.165,mol/L,127.147,-0.8367999999999998,58.69,1.0,3.0
OC(=O)c1c(Cl)c(Cl)c(Cl)c(Cl)c1C(=O)Nc2cccc(Cl)c2Cl,water,298,-4.5051,mol/L,447.91600000000017,6.5575,66.39999999999999,2.0,2.0
O[S](=O)(=O)C(Cl)([S](O)(=O)=O)[S](O)(=O)=O,water,298,0.5366,mol/L,290.68000000000006,-1.5000999999999993,163.10999999999996,3.0,6.0
CCOC(=O)[C@H](C)NC(=O)CCl,water,298,-0.4628,mol/L,193.62999999999997,0.293,55.4,1.0,3.0
CSCOC(=O)c1ccccc1OC(C)=O,water,298,-2.6404,mol/L,240.28,2.0892,52.6,0.0,5.0
CC(=O)Oc1ccccc1C(=O)OC[S](C)=O,water,298,-1.7824,mol/L,256.27899999999994,1.1047,69.67000000000002,0.0,5.0