Solute,Solvent,Temperature_K,Solubility,Units,MW,LogP,TPSA,HBD,HBA
COC(=O)c1ccc(C)cc1,water,298,-2.603151602,mol/L,150.177,1.78162,26.3,0.0,2.0
[Sr++].Cc1ccc(N\N=C\2C(=O)C(=Cc3ccccc23)C([O-])=O)c(c1)[S]([O-])(=O)=O,water,298,-4.105730153,mol/L,471.98900000000026,0.0505199999999999,138.79,1.0,8.0
[Cl-].C[N+](C)(C)c1ccc2ccc(O)c(N=Nc3ccc(N)cc3)c2c1,water,298,-1.980785388,mol/L,356.8570000000001,1.7437000000000007,70.97,2.0,4.0
CCCCCCCC(C)=O,water,298,-2.583653941,mol/L,142.242,2.935900000000002,17.07,0.0,1.0
NC(=O)C(F)(F)F,water,298,-1.485022741,mol/L,113.03800000000001,0.03400000000000014,43.09,1.0,1.0
CCC(C)(C)C1CCC(=O)CC1,water,298,-2.656892778,mol/L,168.27999999999994,3.1819000000000015,17.07,0.0,1.0
O=C1NC(=O)c2ccccc12,water,298,-2.599508366,mol/L,147.13299999999998,0.5702,46.17,1.0,2.0
Cc1ccc(cc1[N+]([O-])=O)[S](C)(=O)=O,water,298,-2.764701082,mol/L,215.23,1.30672,77.28,0.0,4.0
Clc1ccc(Cl)c(Cl)c1,water,298,-3.681262779,mol/L,181.449,3.6468000000000007,0.0,0.0,0.0
O=C(OCCOCCOC(=O)c1ccccc1)c2ccccc2,water,298,-3.921054154,mol/L,314.33700000000005,2.7170000000000005,61.830000000000005,0.0,5.0
CCCCCCC#CC(=O)OC,water,298,-3.651887666,mol/L,168.236,2.1332000000000004,26.3,0.0,2.0
CCCCCCCCCCO,water,298,-3.631238037,mol/L,158.285,3.119400000000002,20.23,1.0,1.0
CCCCCCCCCCCCN(C)C,water,298,-3.761011007,mol/L,213.40899999999996,4.468900000000004,3.24,0.0,1.0
C.O[S](O)(=O)=O,water,298,-3.48916765,mol/L,114.12199999999999,-0.016699999999999826,74.6,2.0,2.0
O=[P](c1ccccc1)(c2ccccc2)c3ccccc3,water,298,-2.877472795,mol/L,278.291,3.3260000000000014,17.07,0.0,1.0
COc1ccc(OC)c(Cl)c1,water,298,-2.672402404,mol/L,172.611,2.3571999999999997,18.46,0.0,2.0
O=[Si]=O,water,298,-3.222456337,mol/L,60.084,-0.6184000000000001,34.14,0.0,2.0
OC(=O)Cc1ccc(Cl)cc1Cl,water,298,-2.749545729,mol/L,205.04,2.6205000000000007,37.3,1.0,1.0
CCCCOC=C,water,298,-2.439597268,mol/L,100.16099999999999,1.9465999999999999,9.23,0.0,1.0
OCCOc1ccc2ccccc2c1,water,298,-2.71429469,mol/L,188.226,2.2108999999999996,29.46,1.0,2.0
O=C1NSc2ccccc12,water,298,-1.619855789,mol/L,151.18999999999997,1.5896,32.86,1.0,2.0
OCc1cccc(Oc2ccccc2)c1,water,298,-2.742499971,mol/L,200.23700000000002,2.9712000000000005,29.46,1.0,2.0
Clc1c(Cl)c(Cl)c2C(=O)OC(=O)c2c1Cl,water,298,-1.899907097,mol/L,285.89699999999993,3.6107999999999993,43.370000000000005,0.0,3.0
CCCCOC(=O)C(C)=C,water,298,-2.596590987,mol/L,142.19799999999995,1.9058,26.3,0.0,2.0
CCCCN[S](=O)(=O)c1ccccc1,water,298,-3.764802467,mol/L,213.302,1.7650000000000003,46.17,1.0,2.0
CCCCOc1ccccc1,water,298,-3.613249563,mol/L,150.22099999999998,2.8655000000000017,9.23,0.0,1.0
O=C(OCCOCCOC(=O)c1ccccc1)c2ccccc2,water,298,-3.937488879,mol/L,314.33700000000005,2.7170000000000005,61.830000000000005,0.0,5.0
O=C(OCCOCCOC(=O)c1ccccc1)c2ccccc2,water,298,-3.938686934,mol/L,314.33700000000005,2.7170000000000005,61.830000000000005,0.0,5.0
CCCCCCCC\C=C/CCCCCCCCNCCCN,water,298,-3.955042001,mol/L,324.59700000000004,5.962300000000004,38.05,2.0,2.0
Clc1ccc(Cl)c(Cl)c1,water,298,-3.702452078,mol/L,181.449,3.6468000000000007,0.0,0.0,0.0
O=C1NC(=O)c2ccccc12,water,298,-3.611407589,mol/L,147.13299999999998,0.5702,46.17,1.0,2.0
O=C(OCCOCCOC(=O)c1ccccc1)c2ccccc2,water,298,-3.941093003,mol/L,314.33700000000005,2.7170000000000005,61.830000000000005,0.0,5.0
OC(=O)c1cccc(c1)[N+]([O-])=O,water,298,-1.6691454,mol/L,167.11999999999995,1.293,80.44,1.0,3.0
OC(=O)c1cccc(c1)[N+]([O-])=O,water,298,-1.669630917,mol/L,167.11999999999995,1.293,80.44,1.0,3.0
Cc1c(CO)nccc1OCC(F)(F)F,water,298,-1.792073711,mol/L,221.17799999999994,1.82342,42.35000000000001,1.0,3.0
COC,water,298,0.88436592,mol/L,46.069,0.26260000000000006,9.23,0.0,1.0
COc1cc(\C=C\C(O)=O)cc(OC)c1OC,water,298,-2.830470194,mol/L,238.23899999999995,1.8101999999999998,64.99000000000001,1.0,4.0
[Ba++].[O-]P=O.[O-]P=O,water,298,0.123663372,mol/L,263.272,-1.274,80.25999999999999,0.0,4.0
[Na+].[Na+].[O-]C(=O)CCC([O-])=O,water,298,0.334413649,mol/L,162.052,-8.725600000000002,80.25999999999999,0.0,4.0
CC(=C)C1CCC(=CC1)C.CC2=CCC3CC2C3(C)C.CC45CCC(CC4)C(C)(C)O5,water,298,-2.086084114,mol/L,426.7290000000003,9.051700000000002,9.23,0.0,1.0
Nc1ccccc1C(O)=O,water,298,-1.593089767,mol/L,137.13799999999998,0.9670000000000001,63.32,2.0,2.0
CCCCC(=O)OC,water,298,-1.520988559,mol/L,116.15999999999998,1.3496000000000001,26.3,0.0,2.0
BrCCCCBr,water,298,-2.790216782,mol/L,215.916,2.556400000000001,0.0,0.0,0.0
CC(C)(N=NC(C)(C)C#N)C#N,water,298,-2.671336846,mol/L,164.212,2.04296,72.3,0.0,4.0
C1CCc2ccccc2C1,water,298,-3.567368139,mol/L,132.20599999999996,2.5654000000000003,0.0,0.0,0.0
O=C(OCCOCCOC(=O)c1ccccc1)c2ccccc2,water,298,-3.952088388,mol/L,314.33700000000005,2.7170000000000005,61.830000000000005,0.0,5.0
CCCCOC(=O)CCCCC(=O)OCCCC,water,298,-3.86815387,mol/L,258.3579999999999,3.2334000000000023,52.60000000000001,0.0,4.0
CCO[P](=O)(C(=O)c1c(C)cc(C)cc1C)c2ccccc2,water,298,-3.956081947,mol/L,316.337,4.392160000000003,43.370000000000005,0.0,3.0
Cc1ccc(c(O)c1)C(C)(C)C,water,298,-2.672674663,mol/L,164.248,2.998120000000001,20.23,1.0,1.0
COC(=O)c1ccc(C(=O)OC)c(c1)[N+]([O-])=O,water,298,-2.835904882,mol/L,239.18299999999996,1.168,95.74000000000001,0.0,6.0
[Co++].CC([O-])=O.CC([O-])=O,water,298,0.29360437,mol/L,177.021,-2.490099999999999,80.25999999999999,0.0,4.0
C=CC(=O)OCCCCCCOC(=O)C=C,water,298,-2.819336696,mol/L,226.27199999999996,2.0052,52.6,0.0,4.0
O=C1N[S](=O)(=O)c2ccccc12,water,298,-1.731418104,mol/L,183.18800000000002,0.11869999999999997,63.24,1.0,3.0
CCCCCCCCCC(=O)N(C)C,water,298,-2.76811118,mol/L,199.338,3.215300000000002,20.310000000000002,0.0,1.0
C=Cc1ccccc1,water,298,-2.486188697,mol/L,104.15199999999997,2.3296,0.0,0.0,0.0
CC(=O)OC\C=C(C)/CCC=C(C)C,water,298,-3.751818407,mol/L,196.29,3.242200000000002,26.3,0.0,2.0
O=C(OCCOCCOC(=O)c1ccccc1)c2ccccc2,water,298,-3.962101384,mol/L,314.33700000000005,2.7170000000000005,61.830000000000005,0.0,5.0
Nc1ccc(cc1)N=Nc2ccccc2,water,298,-3.759703076,mol/L,197.24100000000004,3.6842000000000015,50.739999999999995,1.0,3.0
CC(C)CC=C,water,298,-3.392361668,mol/L,84.16199999999999,2.2184999999999997,0.0,0.0,0.0
C,water,298,-0.67482974,mol/L,16.043,0.6361,0.0,0.0,0.0
Clc1nc(Cl)nc(Cl)n1,water,298,-2.736874833,mol/L,184.413,1.8318000000000003,38.67,0.0,3.0
CC1=CCC(CC#N)C1(C)C,water,298,-2.647537233,mol/L,149.237,2.8924800000000017,23.79,0.0,1.0
OCCN(CCO)c1ccccc1,water,298,-0.734495605,mol/L,181.235,0.47759999999999986,43.7,2.0,3.0
Cc1ccc(O)c(c1)C(C)(C)C,water,298,-2.691753623,mol/L,164.248,2.998120000000001,20.23,1.0,1.0
[Cl-].C[N+](C)(C)c1ccccc1,water,298,0.287747297,mol/L,171.67100000000002,-1.1126999999999976,0.0,0.0,0.0
CC(=O)OC(C)(C)C1CCC(=CC1)C.CC23CCC(CC2)C(C)(C)O3,water,298,-3.021359064,mol/L,350.5430000000001,5.818600000000007,35.53,0.0,3.0
C=CCOc1nc(OCC=C)nc(OCC=C)n1,water,298,-2.87422578,mol/L,249.26999999999998,1.5659999999999998,66.36,0.0,6.0
OC(=O)CC[P](O)(=O)c1ccccc1,water,298,-0.809594191,mol/L,214.15700000000004,1.057,74.6,2.0,2.0
CCCCC(O)=O,water,298,-0.490652149,mol/L,102.13299999999998,1.2612,37.3,1.0,1.0
CC(O)C(C)Cc1ccccc1,water,298,-1.69697299,mol/L,164.24800000000002,2.2460000000000004,20.23,1.0,1.0
CCCCC(C(=O)OCC)C(=O)OCC,water,298,-2.816496397,mol/L,216.27699999999993,1.919,52.60000000000001,0.0,4.0
CCCCCCCCCCCC1=NCCN1CCO,water,298,-3.898655621,mol/L,268.44499999999994,3.613700000000003,35.83,1.0,3.0
FC(F)(F)c1ccc(Cl)cc1,water,298,-3.727695225,mol/L,180.55599999999998,3.3588000000000013,0.0,0.0,0.0
Oc1ccc(cc1)c2ccc(O)cc2,water,298,-3.742373099,mol/L,186.21,2.764800000000001,40.46,2.0,2.0
C\C=C\OC1CCC(CC1)O\C=C\C,water,298,-3.903732091,mol/L,196.29,3.3980000000000024,18.46,0.0,2.0
O=C1CCCCCCCCCOCCCCCO1,water,298,-3.8838495,mol/L,256.3859999999999,3.850900000000003,35.53,0.0,3.0
C\C=C\OC1CCC(CC1)O\C=C\C,water,298,-3.950475494,mol/L,196.29,3.3980000000000024,18.46,0.0,2.0
CCCCCCCCCCC(C)CCCCCCCC,water,298,-6.451104534,mol/L,282.556,7.903900000000008,0.0,0.0,0.0
NC(=O)N=NC(N)=O,water,298,-3.54624346,mol/L,116.08,-0.40399999999999986,110.9,2.0,2.0
CC(C)(C)c1ccc(O)c(c1)C(C)(C)C,water,298,-3.796046333,mol/L,206.32899999999995,3.987200000000003,20.23,1.0,1.0
CC(Cc1ccc(cc1)C(C)(C)C)C=O,water,298,-3.791782061,mol/L,204.31299999999996,3.361600000000002,17.07,0.0,1.0
COc1ccc(cc1N)C(=O)Nc2ccccc2,water,298,-3.86580004,mol/L,242.27800000000002,2.529700000000001,64.35,2.0,3.0
[C-]#[O+],water,298,-2.928799169,mol/L,28.009999999999998,-0.03751,19.9,0.0,0.0
OC(=O)c1occc1,water,298,0.468496284,mol/L,112.08399999999997,0.9778,50.44,1.0,2.0
CCC(C)(C)Cl,water,298,-2.51054501,mol/L,106.59599999999999,2.4138,0.0,0.0,0.0
CC(=O)CC(=O)Nc1ccc(NC(=O)CC(C)=O)cc1,water,298,-2.924172412,mol/L,276.292,1.5217999999999998,92.34,2.0,4.0
N#CCN(CCN(CC#N)CC#N)CC#N,water,298,-2.820404347,mol/L,216.24799999999996,-0.31528,101.63999999999999,0.0,6.0
NC(Nc1ccccc1)=Nc2ccccc2,water,298,-2.81295036,mol/L,211.26799999999997,2.7449000000000012,50.41,2.0,1.0
CC(C)(C)OOC(=O)c1ccccc1,water,298,-2.776432949,mol/L,194.23000000000002,2.573500000000001,35.53,0.0,3.0
CC(F)F,water,298,-1.314722844,mol/L,66.05,1.2714,0.0,0.0,0.0
CCC(C)(O)CCCC(C)C,water,298,-2.694289782,mol/L,158.28499999999997,2.973700000000002,20.23,1.0,1.0
COc1ccc2NC(=S)Nc2c1,water,298,-2.750681924,mol/L,180.232,2.23409,40.81,2.0,2.0
Nc1nc(N)nc(n1)c2ccccc2,water,298,-2.767169786,mol/L,187.20600000000005,0.7029999999999998,90.71,2.0,5.0
FC(F)(F)Br,water,298,-2.667770969,mol/L,148.909,1.9011,0.0,0.0,0.0
C=Cc1ccccc1,water,298,-2.512517636,mol/L,104.15199999999997,2.3296,0.0,0.0,0.0
[Zn++].CC(C)CCCCCO[P]([S-])(=S)OCCCCCC(C)C.CC(C)CCCCCO[P]([S-])(=S)OCCCCCC(C)C,water,298,-4.370701466,mol/L,772.498,12.44509999999998,36.92,0.0,8.0
C1OC1COc2ccc3c(OCC4CO4)cccc3c2,water,298,-3.919173798,mol/L,272.29999999999995,2.3950000000000005,43.519999999999996,0.0,4.0
CC(C)=CCC\C(C)=C\COC=O,water,298,-3.746150762,mol/L,182.26299999999998,2.852100000000001,26.3,0.0,2.0
O.O.O.O.[Pb].[Pb].[Pb].[Pb].[Pb].[O-][S]([O-])(=O)=O,water,298,-4.566123099,mol/L,1204.123,-6.540799999999996,206.26,0.0,4.0
C[C@@H]1CC=C(C)[C@H](\C=C\C(C)=O)C1(C)C,water,298,-3.802676912,mol/L,206.32899999999995,3.760100000000003,17.07,0.0,1.0
CO[SiH](CC1CCCCC1)OC,water,298,-3.095972537,mol/L,188.34299999999996,2.08,18.46,0.0,2.0
[Co++].[O-]C(=O)C([O-])=O,water,298,-3.659316674,mol/L,146.951,-3.5163,80.25999999999999,0.0,4.0
Nc1ccc(\C=C\c2ccc(N)cc2[S](O)(=O)=O)c(c1)[S](O)(=O)=O,water,298,-4.06353038,mol/L,370.4080000000001,1.5148000000000006,160.78,4.0,6.0
[Zn++].Cc1cccc2[N-]C(=S)Nc12.Cc3cccc4NC(=S)[N-]c34,water,298,-4.08795879,mol/L,391.8400000000001,4.323520000000002,59.78,2.0,2.0
OC(=O)CC[P](O)(=O)c1ccccc1,water,298,-0.828305155,mol/L,214.15700000000004,1.057,74.6,2.0,2.0
O=[S](Cc1ccccc1)Cc2ccccc2,water,298,-2.858808721,mol/L,230.332,3.1355000000000013,17.07,0.0,1.0
CC(C)(c1ccc(O)cc1)c2ccc(O)cc2,water,298,-2.856061671,mol/L,228.291,3.423700000000002,40.46,2.0,2.0
CC(C)(N=NC(C)(C)C#N)C#N,water,298,-2.713250998,mol/L,164.212,2.04296,72.3,0.0,4.0
CCC(C)COC(=O)C=C,water,298,-2.653206406,mol/L,142.19799999999998,1.7617,26.3,0.0,2.0
Clc1sc2ccccc2n1,water,298,-2.732588375,mol/L,169.636,2.949700000000001,12.89,0.0,2.0
CC1=CC(=O)N(O)C(=C1)C2CCCCC2.NCCO,water,298,-0.933168591,mol/L,268.3569999999999,1.37912,88.48,3.0,5.0
CC(=O)OC\C=C\c1ccccc1,water,298,-2.750498537,mol/L,176.215,2.2629,26.3,0.0,2.0
Clc1sc2ccccc2n1,water,298,-2.735363429,mol/L,169.636,2.949700000000001,12.89,0.0,2.0
Clc1ccc2c(Cl)ccnc2c1,water,298,-2.802624638,mol/L,198.052,3.5416000000000007,12.89,0.0,1.0
OC(=O)CC[P](O)(=O)c1ccccc1,water,298,-0.83681438,mol/L,214.15700000000004,1.057,74.6,2.0,2.0
Nc1cccc(O)c1,water,298,-0.545147879,mol/L,109.12799999999999,0.9743999999999999,46.25,2.0,2.0
Nc1ccccc1[S](O)(=O)=O,water,298,-1.747168641,mol/L,173.19299999999998,0.5155000000000001,80.39,2.0,3.0
[Ti+4].CC(C)[O-].CC(C)[O-].CC(=O)[CH-]C(C)=O.CC(=O)[CH-]C(C)=O,water,298,-2.070050982,mol/L,364.26100000000014,0.24507999999999996,114.39999999999998,0.0,6.0
CC(=O)Nc1ccc(cc1)[S](Cl)(=O)=O,water,298,-2.877252416,mol/L,233.676,1.5724999999999998,63.24,1.0,3.0
C=Cc1ccccc1,water,298,-2.52630592,mol/L,104.15199999999997,2.3296,0.0,0.0,0.0
[Mg++].[O-]C([O-])=O,water,298,-3.42210386,mol/L,84.31299999999999,-2.8278000000000003,63.19,0.0,3.0
Nc1c(Cl)cc(Cl)cc1Cl,water,298,-3.790037211,mol/L,196.464,3.229,26.02,1.0,1.0
Clc1ccc(Cl)cc1,water,298,-3.66626989,mol/L,147.00400000000002,2.993400000000001,0.0,0.0,0.0
c1ccc2ccccc2c1,water,298,-3.606740676,mol/L,128.17399999999995,2.839800000000001,0.0,0.0,0.0
Clc1ccc(Cl)c(Cl)c1,water,298,-3.763210242,mol/L,181.449,3.6468000000000007,0.0,0.0,0.0
CCC(=O)OC1C(C)CCCC1(C)C,water,298,-3.803181261,mol/L,198.30599999999993,3.1544000000000016,26.3,0.0,2.0
COC(=O)c1ccc(cc1)C(=O)OC,water,298,-3.796856222,mol/L,194.18599999999998,1.2597999999999998,52.60000000000001,0.0,4.0
CCCCCCCC1CCCC1=O,water,298,-3.769441651,mol/L,182.30699999999996,3.7161000000000026,17.07,0.0,1.0
O=C(Cc1ccccc1)OCc2ccccc2,water,298,-3.86327488,mol/L,226.27499999999998,2.972500000000001,26.3,0.0,2.0
CC(C)[C@@H]1CC[C@@H](C)CC1=O,water,298,-2.698978451,mol/L,154.253,2.6477000000000013,17.07,0.0,1.0
Clc1sc2ccccc2n1,water,298,-2.740967307,mol/L,169.636,2.949700000000001,12.89,0.0,2.0
CN(C)C(=S)SC(=S)N(C)C,water,298,-2.830299065,mol/L,208.377,1.4126,6.48,0.0,3.0
C=CCOc1nc(OCC=C)nc(OCC=C)n1,water,298,-2.908119297,mol/L,249.26999999999998,1.5659999999999998,66.36,0.0,6.0
C[C@@H](CCO)CCC=C(C)C,water,298,-2.706734458,mol/L,156.26899999999998,2.7513000000000014,20.23,1.0,1.0
CCC(=O)C(C)CC=C(C)C,water,298,-2.701095244,mol/L,154.253,2.9579000000000013,17.07,0.0,1.0
Cc1cc(C)c(N)c(c1)[S](O)(=O)=O,water,298,-1.819543504,mol/L,201.24699999999999,1.1323400000000001,80.39,2.0,3.0
N#CCN(CCN(CC#N)CC#N)CC#N,water,298,-2.852078516,mol/L,216.24799999999996,-0.31528,101.63999999999999,0.0,6.0
s1cccc1,water,298,-1.445011049,mol/L,84.143,1.7481,0.0,0.0,1.0
s1cccc1,water,298,-1.445730676,mol/L,84.143,1.7481,0.0,0.0,1.0
COC(=O)CCCCCCCCC(=O)OC,water,298,-2.883734985,mol/L,230.30399999999995,2.4532000000000007,52.60000000000001,0.0,4.0
CC(C)(c1ccc(O)cc1)c2ccc(O)cc2,water,298,-2.879922295,mol/L,228.291,3.423700000000002,40.46,2.0,2.0
ClC(Cl)(Cl)C=O,water,298,-0.691340871,mol/L,147.388,1.5554999999999999,17.07,0.0,1.0
CCC(C)CO,water,298,-0.468101062,mol/L,88.14999999999999,1.0248,20.23,1.0,1.0
CC(C)CCO,water,298,-0.468101062,mol/L,88.14999999999999,1.0248,20.23,1.0,1.0
[Na+].[Na+].[Na+].[Na+].CC(=O)Nc1ccc(c2C=C(/C(=N/Nc3ccc(N=Nc4ccc(cc4)[S]([O-])(=O)=O)c5ccc(cc35)[S]([O-])(=O)=O)C(=O)c12)[S]([O-])(=O)=O)[S]([O-])(=O)=O,water,298,-1.461244839,mol/L,867.6930000000003,-9.50760000000002,324.08,2.0,18.0
s1cnc2ccccc12,water,298,-1.653826526,mol/L,135.19099999999997,2.2963000000000005,12.89,0.0,2.0
CCCCOC=C,water,298,-1.523577397,mol/L,100.16099999999999,1.9465999999999999,9.23,0.0,1.0
C1OC1c2ccccc2,water,298,-1.602606135,mol/L,120.15099999999995,1.7579,12.53,0.0,1.0
OC(=O)c1cccc(c1)[N+]([O-])=O,water,298,-1.745907172,mol/L,167.11999999999995,1.293,80.44,1.0,3.0
O=[Mo]=O,water,298,-3.739643636,mol/L,127.93799999999999,-0.2401,34.14,0.0,2.0
S=C1Nc2ccccc2N1,water,298,-2.699566026,mol/L,150.206,2.2254899999999997,31.58,2.0,1.0
O=C1Nc2ccccc2C(=O)O1,water,298,-2.735417906,mol/L,163.13199999999995,0.4813,63.07,1.0,3.0
OC(c1ccccc1)C(=O)c2ccccc2,water,298,-2.849722352,mol/L,212.248,2.602900000000001,37.3,1.0,2.0
CC(C)(c1ccc(O)cc1)c2ccc(O)cc2,water,298,-2.881367536,mol/L,228.291,3.423700000000002,40.46,2.0,2.0
C=Cc1ccccc1,water,298,-2.540546359,mol/L,104.15199999999997,2.3296,0.0,0.0,0.0
CCCCCCCCO,water,298,-2.637593121,mol/L,130.23100000000002,2.3392000000000013,20.23,1.0,1.0
Clc1cccc(Cl)c1Cl,water,298,-3.7687961,mol/L,181.44899999999998,3.6468000000000007,0.0,0.0,0.0
O=[Te]=O,water,298,-3.715606233,mol/L,159.59799999999998,-0.6184000000000001,34.14,0.0,2.0
O=[Te]=O,water,298,-3.717306018,mol/L,159.59799999999998,-0.6184000000000001,34.14,0.0,2.0
COC(=O)COc1nc(F)c(Cl)c(N)c1Cl,water,298,-3.951281028,mol/L,269.05899999999997,1.6615,74.44,1.0,5.0
CC(=C)C(=O)OCC(F)(F)C(F)(F)C(F)(F)C(F)F,water,298,-4.000209858,mol/L,300.1449999999999,3.2767000000000017,26.3,0.0,2.0
Nc1c(Cl)cc(Cl)cc1Cl,water,298,-3.816161727,mol/L,196.464,3.229,26.02,1.0,1.0
CC(C)=CCCC(C)(OC(C)=O)C=C,water,298,-3.81577692,mol/L,196.29,3.2406000000000024,26.3,0.0,2.0
[Ca++].CCCCCCC(O)CCCCCCCCCCC([O-])=O.CCCCCCC(O)CCCCCCCCCCC([O-])=O,water,298,-4.328398633,mol/L,639.0280000000001,7.55640000000001,120.72,2.0,6.0
OC(=O)CCCCCCCCCCC(O)=O,water,298,-3.885180226,mol/L,230.30399999999995,3.0566000000000013,74.6,2.0,2.0
CC(C)(C)c1cccc(c1O)C(C)(C)C,water,298,-4.713587378,mol/L,206.32899999999995,3.987200000000003,20.23,1.0,1.0
COc1ccc(cc1O)[C@@H]2CC(=O)c3c(O)cc(O[C@@H]4O[C@H](CO)[C@@H](O)[C@H](O)[C@H]4O[C@@H]5O[C@@H](C)[C@H](O)[C@@H](O)[C@H]5O)cc3O2,water,298,-5.185848833,mol/L,610.5650000000003,-1.1566000000000003,234.28999999999996,8.0,15.0
[Ce+3].[Ce+3].[O-]C([O-])=O.[O-]C([O-])=O.[O-]C([O-])=O,water,298,-5.066402363,mol/L,460.2560000000003,-7.341000000000001,189.57,0.0,9.0
CCCCC(CC)COC(C)=O,water,298,-4.645140005,mol/L,172.26799999999997,2.765900000000001,26.3,0.0,2.0
CCCCCCCCC(C)C#N,water,298,-4.63242095,mol/L,167.296,3.8966800000000035,23.79,0.0,1.0
CCN1C(=O)C(=N/Nc2ccc(Cl)cc2[N+]([O-])=O)/C(=C(C#N)C1=O)C,water,298,-4.96733793,mol/L,361.7450000000002,2.24488,128.7,1.0,7.0
CC(C)CCCC=C,water,298,-4.458990177,mol/L,112.216,2.9987000000000013,0.0,0.0,0.0
ClCCc1cc2CC(=O)Nc2cc1Cl,water,298,-4.77757407,mol/L,230.094,2.615900000000001,29.1,1.0,1.0
CCCCOCCOC(=O)CCCCC(=O)OCCOCCCC,water,298,-4.958733139,mol/L,346.46400000000017,3.2666000000000013,71.06,0.0,6.0
CC(c1ccccc1)c2ccccc2,water,298,-4.692503939,mol/L,182.266,3.8384000000000027,0.0,0.0,0.0
Cc1ccccc1Cc2ccccc2,water,298,-4.692503939,mol/L,182.26600000000002,3.585820000000002,0.0,0.0,0.0
CC1=CCC2C(C1)C2(C)C,water,298,-4.566096535,mol/L,136.238,2.9987000000000013,0.0,0.0,0.0
O=[Si]=O,water,298,-4.210557113,mol/L,60.084,-0.6184000000000001,34.14,0.0,2.0
[Nd+3].[Nd+3].[O-]C([O-])=O.[O-]C([O-])=O.[O-]C([O-])=O,water,298,-5.108420439,mol/L,468.5040000000003,-7.341000000000001,189.57,0.0,9.0
CC(=O)O[C@@]1(CC[C@H]2[C@@H]3CCC4=CC(=O)CC[C@@H]4[C@H]3CC[C@]12C)C(C)=O,water,298,-4.995753937,mol/L,358.4780000000001,4.0191000000000034,60.440000000000005,0.0,4.0
OC(=O)c1cc(Nc2ccccc2)c(cc1Nc3ccccc3)C(O)=O,water,298,-4.985723288,mol/L,348.35800000000006,4.5702000000000025,98.66,4.0,4.0
O=C(OCc1ccccc1)/C=C/c2ccccc2,water,298,-4.820796026,mol/L,238.286,3.443200000000002,26.3,0.0,2.0
CC(=O)OC1CCC(CC1)C(C)(C)C,water,298,-4.747107502,mol/L,198.30599999999998,3.1544000000000016,26.3,0.0,2.0
O=C1N=C(NC(=N1)c2ccccc2)c3ccccc3,water,298,-5.493585254,mol/L,249.27300000000002,2.498900000000001,58.64,1.0,3.0
[O--].[O--].[O--].[Gd+3].[Gd+3],water,298,-5.015236372,mol/L,362.497,-0.3564,85.5,0.0,0.0
CC(C)C(=O)OC(C)(CCC=C(C)C)C=C,water,298,-4.810584984,mol/L,224.34399999999994,3.876700000000003,26.3,0.0,2.0
Cc1cc(C)c(c(C)c1)C(=O)[P](=O)(c2ccccc2)c3ccccc3,water,298,-5.010576791,mol/L,348.382,4.766160000000004,34.14,0.0,2.0
CCCCC(CC)C(=O)OCC(C)(C)COC(=O)C(CC)CCCC,water,298,-5.02063787,mol/L,356.5470000000002,5.531800000000006,52.6,0.0,4.0
[O--].[O--].[O--].[O--].[O--].[Ti+4].[Zr+4].[Pb++],water,298,-5.098222153,mol/L,426.286,-0.9797999999999999,142.5,0.0,0.0
CCOC(=O)C1C(C=C(C)C)C1(C)C,water,298,-4.765268274,mol/L,196.28999999999996,2.7879000000000014,26.3,0.0,2.0
Oc1ccc(cc1)C2(OC(=O)c3ccccc23)c4ccc(O)cc4,water,298,-4.976535563,mol/L,318.32800000000003,3.560100000000002,66.76,2.0,4.0
CCC(Cc1ccc(C)cc1)(N(C)C)C(=O)c2ccc(cc2)N3CCOCC3,water,298,-5.061877244,mol/L,380.5320000000002,3.9674200000000033,32.78,0.0,4.0
NC(=O)c1ccc(NC(=O)c2ccc(cc2)[N+]([O-])=O)cc1,water,298,-4.936725416,mol/L,285.259,1.9459999999999997,115.33000000000001,2.0,4.0
CC(=O)c1cc(cc2c1CCC2(C)C)C(C)(C)C,water,298,-4.870866208,mol/L,244.37799999999993,4.410500000000004,17.07,0.0,1.0
COc1cc(N[S](=O)(=O)c2ccc(C)cc2)c3C(=O)c4ccccc4C(=O)c3c1N,water,298,-5.112570051,mol/L,422.4620000000002,3.162020000000001,115.55999999999999,2.0,6.0
[H+].[Mn++].Cc1cc(c(cc1Cl)N=Nc2c([O-])c(cc3ccccc23)C([O-])=O)[S]([O-])(=O)=O,water,298,-5.170401078,mol/L,473.75200000000024,2.6682200000000025,145.10999999999999,0.0,8.0