Solute,Solvent,Temperature_K,Solubility,Units,MW,LogP,TPSA,HBD,HBA
CC1CC(C)(C)CC(C1)(OOC(C)(C)C)OOC(C)(C)C,water,298,-5.7025,mol/L,302.45500000000004,5.022300000000005,36.92,0.0,4.0
COC(=O)c1c(cccc1[N+]([O-])=O)C(O)=O,water,298,-2.0853,mol/L,225.15599999999998,1.0796,106.74000000000001,1.0,5.0
CC(C)OC(=O)c1cccc(c1C([O-])=O)[N+]([O-])=O,water,298,-2.3466,mol/L,252.20199999999997,0.5235,109.57000000000002,0.0,6.0
CC(C)OC(=O)c1c(cccc1[N+]([O-])=O)C([O-])=O,water,298,-2.4897,mol/L,252.20199999999997,0.5235,109.57,0.0,6.0
CC(C)(C)OC(=O)c1cccc(c1C([O-])=O)[N+]([O-])=O,water,298,-3.0467,mol/L,266.229,0.9135999999999999,109.57000000000002,0.0,6.0
CC(C)CCOC(=O)c1cccc(c1C([O-])=O)[N+]([O-])=O,water,298,-3.0689,mol/L,280.25600000000003,1.1612000000000002,109.57000000000002,0.0,6.0
Cc1cc(C)c(c(C)c1)[PH](O)=O,water,298,-2.7896,mol/L,184.17499999999998,1.70416,37.3,1.0,1.0
CCC(C)OC,water,298,-0.7306,mol/L,88.14999999999999,1.4313,9.23,0.0,1.0
OCC(CO)OCC=C,water,298,0.481,mol/L,132.159,-0.4578000000000002,49.69,2.0,3.0
CN(C(/N)=N/[N+]([O-])=O)[N+]([O-])=O,water,298,-0.6104,mol/L,163.093,-1.3836999999999997,127.9,1.0,4.0
CCC(C)OC(=O)c1cccc(c1C([O-])=O)[N+]([O-])=O,water,298,-2.7193,mol/L,266.229,0.9135999999999999,109.57000000000002,0.0,6.0
Clc1ccc(Oc2cccc(Cl)c2)cc1,water,298,-4.7701,mol/L,239.101,4.785700000000003,9.23,0.0,1.0
C[C@H]1CCCC[C@@H]1C,water,298,-4.3341,mol/L,112.216,2.832600000000001,0.0,0.0,0.0
NC(CCC(O)=O)C(O)=O,water,298,-1.2194,mol/L,147.13,-0.7369000000000001,100.62,3.0,3.0
N[C@@H](CO)C(O)=O,water,298,-0.3861,mol/L,105.09299999999999,-1.6094000000000002,83.55000000000001,3.0,3.0
NC(CCC(O)=O)C(O)=O,water,298,-0.9916,mol/L,147.13,-0.7369000000000001,100.62,3.0,3.0
Clc1ccc(Oc2ccccc2Cl)cc1,water,298,-5.52,mol/L,239.101,4.785700000000003,9.23,0.0,1.0
CC(=O)NC(NC(C)=O)c1ccccc1,water,298,-1.3144,mol/L,206.245,0.9573999999999998,58.2,2.0,2.0
CNC(=O)\C=C(/C)O[P](=O)(OC)OC,water,298,0.6514,mol/L,223.16499999999996,1.0536999999999999,73.86,1.0,5.0
COc1c(Cl)c(Cl)cc(Cl)c1Cl,water,298,-5.1307,mol/L,245.92000000000002,4.308800000000001,9.23,0.0,1.0
NC(=O)N\N=C\C(O)C(O)C(O)C(O)CO,water,298,-0.4257,mol/L,237.21200000000002,-3.9236,168.63,7.0,7.0
CCCCOC(=O)c1cccnc1,water,298,-1.8367,mol/L,179.219,2.0385,39.19,0.0,3.0
OCCCOC(=O)c1ccccc1,water,298,-1.2558,mol/L,180.203,1.2258,46.53,1.0,3.0
CSc1ncnc2nccnc12,water,298,-2.365,mol/L,178.22000000000003,1.1417,51.56,0.0,5.0
CNC(=O)Oc1ccccc1C2OCCO2,water,298,-1.5706,mol/L,223.22799999999995,1.4502,56.790000000000006,1.0,4.0
CCC(C)C(N)C(O)=O,water,298,-0.6525,mol/L,131.17499999999998,0.44439999999999996,63.32,2.0,2.0
Clc1ccc(Oc2ccccc2)cc1,water,298,-4.7925,mol/L,204.656,4.1323000000000025,9.23,0.0,1.0
NC(CC(N)=O)C(O)=O,water,298,-0.8755,mol/L,132.119,-1.7263000000000002,106.41,3.0,3.0
CC(C)c1ccccc1Br,water,298,-4.1898,mol/L,199.09099999999995,3.5725000000000025,0.0,0.0,0.0
CC(Oc1ccc(Cl)cc1C)C(O)=O,water,298,-2.466,mol/L,214.64799999999997,2.5003199999999994,46.53,1.0,2.0
CCCC[P](=O)(CCCC)OCC,water,298,-1.2005,mol/L,206.26599999999993,3.901200000000003,26.3,0.0,2.0
Cc1cc(O)c(cc1Cl)[N+]([O-])=O,water,298,-4.3901,mol/L,187.582,2.262220000000001,63.37,1.0,3.0
COc1cc(cc(Cl)n1)C(Cl)(Cl)Cl,water,298,-4.3635,mol/L,260.935,3.5703000000000005,22.12,0.0,2.0
CCOc1ccc(cc1)N(C(C)=O)C(C)=O,water,298,-1.947,mol/L,221.25599999999994,1.9846999999999997,46.61,0.0,3.0
CCCCO[P](=O)(OCC)OCCCC,water,298,-1.8456,mol/L,238.26399999999992,3.764400000000003,44.760000000000005,0.0,4.0
CCCCO[P](=O)(OC)OCCCC,water,298,-1.4995,mol/L,224.23699999999994,3.3743000000000025,44.760000000000005,0.0,4.0
OC(=O)c1cccc2ncccc12,water,298,-2.6774,mol/L,173.171,1.9329999999999998,50.19,1.0,2.0
COC(=O)c1cc(Cl)cc(N)c1Cl,water,298,-3.2634,mol/L,220.055,2.3622,52.32,1.0,3.0
CCC(C)(O)C(C)(C)C,water,298,-1.2708,mol/L,130.23099999999997,2.1935000000000002,20.23,1.0,1.0
CN(C)C(=O)CCC(=O)N(C)C,water,298,0.5035,mol/L,172.22799999999998,-0.05699999999999994,40.620000000000005,0.0,2.0
OC(=O)CC[Se][Se]CCC(O)=O,water,298,-2.2681,mol/L,304.06200000000007,0.09580000000000005,74.6,2.0,2.0
OCN1CC(=O)N(CO)CC1=O,water,298,-0.4168,mol/L,174.15599999999998,-2.443199999999999,81.08000000000001,2.0,4.0
CC(C)C1C(=O)NC(=O)NC1=O,water,298,-1.4556,mol/L,170.16799999999998,-0.3754000000000001,75.27000000000001,2.0,3.0
O=[P](Oc1ccccc1)(Oc2ccccc2)N3CCOCC3,water,298,-2.1425,mol/L,319.2970000000002,3.5847000000000024,48.0,0.0,4.0
CN(N=O)C(C)=O,water,298,-0.7684,mol/L,102.09299999999999,0.1460999999999999,49.74,0.0,3.0
ClC1(Cl)C2(Cl)C3C(CC4C3C1(Cl)C5(Cl)C4C25Cl)C=O,water,298,-7.2006,mol/L,380.9130000000001,3.8087000000000018,17.07,0.0,1.0
O=[S]=O,water,298,0.2235,mol/L,64.065,-0.6701999999999999,34.14,0.0,2.0
CCNc1c(cc(cc1[N+]([O-])=O)[N+]([O-])=O)[N+]([O-])=O,water,298,-3.4085,mol/L,256.174,1.8430000000000002,141.45000000000002,1.0,7.0
Nc1sc2cccc(O)c2n1,water,298,-1.9196,mol/L,166.20499999999998,1.5841,59.14,2.0,4.0
CC1(CCOC1=O)C(O)=O,water,298,0.8412,mol/L,144.12599999999998,0.024199999999999944,63.6,1.0,3.0
OC(=O)c1ccc2C(=O)c3ccccc3C(=O)c2c1C(O)=O,water,298,-2.8141,mol/L,296.23400000000004,1.8584,108.74000000000001,2.0,4.0
NC1=NC(=O)N(C=C1)[C@H]2CC[C@@H](CO)O2,water,298,-0.4416,mol/L,211.22099999999995,-0.5046000000000008,90.37,2.0,6.0
COC1(C)COC(C)(CO1)OC,water,298,-1.246,mol/L,176.21199999999996,0.7584,36.92,0.0,4.0
COc1cc(\C=C\C)ccc1OCC([O-])=O,water,298,-1.5826,mol/L,221.23199999999994,0.857,58.589999999999996,0.0,4.0
O=C1CCCCCCCCCCCCN1,water,298,-2.626,mol/L,211.34899999999996,3.407300000000002,29.1,1.0,1.0
OCc1cc(Cl)c(Cl)c(Cl)c1,water,298,-3.0948,mol/L,211.47500000000002,3.139100000000001,20.23,1.0,1.0
II,water,298,-2.886,mol/L,253.808,1.7714,0.0,0.0,0.0
Oc1cccc2cncnc12,water,298,-2.0361,mol/L,146.14899999999997,1.3353999999999997,46.010000000000005,1.0,3.0
CCCCS[S](=O)CCCC,water,298,-2.2886,mol/L,194.36499999999995,2.983500000000001,17.07,0.0,2.0
NCC(O)c1ccccc1,water,298,-0.4764,mol/L,137.182,0.6787000000000001,46.25,2.0,2.0
CC(Cl)C(C)Cl,water,298,-2.3541,mol/L,127.014,2.2410000000000005,0.0,0.0,0.0
ON(C(=O)c1occc1)c2ccccc2,water,298,-3.194,mol/L,203.197,2.3156000000000008,53.68,1.0,3.0
[H+].[F-],water,298,1.6988,mol/L,20.006,-2.8835,0.0,0.0,0.0
O[S](O)(=O)=O,water,298,1.0084,mol/L,98.07899999999998,-0.6527999999999998,74.6,2.0,2.0
CCCOC(=O)c1cccnc1,water,298,-1.2403,mol/L,165.19199999999998,1.6483999999999999,39.19,0.0,3.0
Cn1c(COC(N)=O)ncc1[N+]([O-])=O,water,298,-1.8433,mol/L,200.154,-0.07639999999999991,113.28,1.0,6.0
CCCCC(NC(C)=O)C(O)=O,water,298,-0.6823,mol/L,173.212,0.7659,66.4,2.0,2.0
CC(C)=C[C@@H]1[C@@H](C(=O)OCN2C(=O)C3=C(CCCC3)C2=O)C1(C)C,water,298,-5.2579,mol/L,331.4120000000001,2.964900000000002,63.68,0.0,4.0
CO[P](=O)(OC)OC(/C)=C/C(=O)OC(C)c1ccccc1,water,298,-2.4973,mol/L,314.274,3.6121000000000025,71.06,0.0,6.0
OC(=O)c1c(Cl)ccc2ccccc12,water,298,-2.3152,mol/L,206.62800000000001,3.1914000000000007,37.3,1.0,1.0
CCCOCCN(C(=O)CCl)c1c(CC)cccc1CC,water,298,-3.795,mol/L,311.85300000000007,3.8098000000000027,29.54,0.0,2.0
[Na+].[Na+].[Na+].[Na+].[O-][P]([O-])(=O)O[P]([O-])([O-])=O,water,298,-0.5141,mol/L,265.90099999999995,-15.3236,135.61,0.0,7.0
N#N,water,298,-0.1901,mol/L,28.014,0.03016,47.58,0.0,2.0
O.O.O.O.O.[Cu++].[O-][S]([O-])(=O)=O,water,298,-0.8922,mol/L,249.684,-5.463999999999998,237.76,0.0,4.0
O[As](O)(O)=O,water,298,0.6187,mol/L,141.94199999999998,-2.1706,77.75999999999999,3.0,1.0
O=O,water,298,0.0691,mol/L,31.998,0.067,34.14,0.0,2.0
ClCl,water,298,-1.0513,mol/L,70.906,1.379,0.0,0.0,0.0
S,water,298,-0.9596,mol/L,34.083,0.11280000000000001,0.0,0.0,0.0
COC(=O)\C=C(/C)O[P](=O)(OC)OC,water,298,0.4276,mol/L,224.14899999999997,1.4807,71.06,0.0,6.0
CCC(Cl)(Cl)Cl,water,298,-1.8898,mol/L,147.43200000000002,2.7666000000000013,0.0,0.0,0.0
CC1=CCC(CC1)C(C)(C)O,water,298,-1.8916,mol/L,154.25300000000001,2.5037000000000007,20.23,1.0,1.0
CCO[P](=O)(OCC)SCCSCC.CCO[P](=S)(OCC)OCCSCC,water,298,-3.9351,mol/L,516.6900000000003,6.707400000000007,63.22000000000001,0.0,10.0
CCCC(C)c1cccc(OC(=O)NC)c1.CCC(CC)c2cccc(OC(=O)NC)c2,water,298,-3.947,mol/L,442.6000000000002,6.616800000000007,76.66,2.0,4.0
CCCCCCCCOCCO,water,298,-2.125,mol/L,174.284,2.355800000000001,29.46,1.0,2.0
CC(C)[C@@H](O)C#N,water,298,0.3048,mol/L,99.133,0.52688,44.019999999999996,1.0,2.0
CCC(CC)COC(C)=O,water,298,-1.3528,mol/L,144.21399999999997,1.9857,26.3,0.0,2.0
ClC\C=C/Cl,water,298,-1.7067,mol/L,110.971,1.9777,0.0,0.0,0.0
ClC/C=C/Cl,water,298,-1.598,mol/L,110.971,1.9777,0.0,0.0,0.0
CC1CC1(C(O)=O)C(O)=O,water,298,0.8412,mol/L,144.12599999999998,0.18180000000000007,74.6,2.0,2.0
OC(=O)CC(C(O)=O)(c1ccccc1)c2ccccc2,water,298,-2.4318,mol/L,270.28400000000005,2.532000000000001,74.6,2.0,2.0
NC(=O)C(Br)(Br)C#N,water,298,-1.2075,mol/L,241.86999999999998,0.48138000000000003,66.88,1.0,2.0
COc1ccc(Cl)cc1C(=O)NCCc2ccc(cc2)[S](=O)(=O)NC(=O)NC3CCCCC3,water,298,-5.0917,mol/L,494.0130000000003,3.641700000000002,113.6,3.0,5.0
CO[P](N)(=O)SC,water,298,0.8504,mol/L,141.132,1.0626,52.32,1.0,3.0
CCO[P](=S)(OCC)SC(CCl)N1C(=O)c2ccccc2C1=O,water,298,-6.3401,mol/L,393.85400000000016,3.878200000000003,55.84,0.0,6.0
CC(C)CN1CCOCC1,water,298,-0.7089,mol/L,143.22999999999996,0.9746000000000001,12.47,0.0,2.0
CC(=O)N[C@@H](Cc1cc(Br)c(O)c(Br)c1)C(O)=O,water,298,-2.183,mol/L,381.02000000000004,2.049,86.63,3.0,3.0
OC(=O)c1ccc2ncccc2c1,water,298,-0.0456,mol/L,173.171,1.9329999999999998,50.19,1.0,2.0
O=C(NC1CCCCC1)c2cccnc2,water,298,-2.319,mol/L,204.27300000000005,2.1441,41.99,1.0,2.0
CC1(C)C2CCC1(C)C(=O)C2O,water,298,-0.9249,mol/L,168.23600000000002,1.3724999999999998,37.3,1.0,2.0
Nc1cc(ccc1Br)[N+]([O-])=O,water,298,-3.5583,mol/L,217.022,1.9395,69.16,1.0,3.0
CCCCCCCCOCC(O)CO,water,298,-1.9208,mol/L,204.31,1.7167,49.69,2.0,3.0
CCOC(=O)CCCOc1ccc(Cl)cc1C,water,298,-4.4095,mol/L,256.729,3.3705200000000017,35.53,0.0,3.0
CC(C)=CC1C(C(=O)OCc2coc(Cc3ccccc3)c2)C1(C)C,water,298,-6.9509,mol/L,338.44700000000006,5.1520000000000055,39.44,0.0,3.0
OC1(CCN(CCCC(=O)c2ccc(F)cc2)CC1)c3ccc(Br)cc3,water,298,-3.6693,mol/L,420.32200000000006,4.534700000000004,40.54,1.0,3.0
Cc1c(Cl)c(O)c(Cl)c(Cl)c1Cl,water,298,-4.6021,mol/L,245.92,4.314220000000001,20.23,1.0,1.0
CCO[P](=O)(OC)OC,water,298,0.5112,mol/L,154.10199999999998,1.4238,44.760000000000005,0.0,4.0
CCO[P](=S)(OCC)SC[S](=O)C(C)(C)C,water,298,-2.4421,mol/L,304.4390000000001,3.5218000000000025,35.53,0.0,5.0
CC(C)OC(=O)c1cc(cc(c1)[N+]([O-])=O)C(=O)OC(C)C,water,298,-5.0389,mol/L,295.291,2.725200000000001,95.74,0.0,6.0
Clc1cccc(c1Cl)c2ccc(Cl)c(Cl)c2Cl,water,298,-6.8803,mol/L,326.437,6.620600000000001,0.0,0.0,0.0
COC(=O)[C@@]1(O)OC[C@@]23[C@H](C[C@@H](OC(C)=O)[C@]4(CO[C@@H]([C@@H](O)[C@](C)([C@H]12)[C@]56O[C@@]5(C)[C@H]7C[C@@H]6O[C@@H]8OC=C[C@]78O)[C@H]34)C(=O)OC)OC(=O)C(/C)=C/C,water,298,-3.4428,mol/L,720.7210000000002,-0.20309999999999273,215.33999999999995,3.0,16.0
O[P](O)(=O)CCCl,water,298,0.8401,mol/L,144.494,0.4029,57.53,2.0,1.0
[Mn].C[c-]1cccc1.[C-]#[O+].[C-]#[O+].[C-]#[O+],water,298,-3.8762,mol/L,218.08999999999995,1.59889,59.699999999999996,0.0,0.0
CCOc1cc(N=Nc2cc(cc(c2Br)[N+]([O-])=O)[N+]([O-])=O)c(NC(C)=O)cc1N(CCOC(C)=O)CCOC(C)=O,water,298,-8.8336,mol/L,639.4160000000002,4.970600000000005,205.17,1.0,13.0
CNC(=O)Oc1cc(C)cc(C)c1C,water,298,-1.9851,mol/L,193.24599999999998,2.3300600000000005,38.33,1.0,2.0
OC(=O)CC[Ge](=O)O[Ge](=O)CCC(O)=O,water,298,-1.4932,mol/L,339.35900000000015,-0.21020000000000044,117.97,2.0,5.0
COc1ccc(cc1)C(O)(C2CC2)c3cncnc3,water,298,-2.5959,mol/L,256.30499999999995,2.1311,55.24,1.0,4.0
CC(C)OCC(O)COC(C)C,water,298,0.0549,mol/L,176.256,1.1972999999999998,38.69,1.0,3.0
CC(=O)c1ccc(O)c(c1)C([O-])=O,water,298,-2.2304,mol/L,179.15099999999995,-0.041700000000000015,77.43,1.0,4.0
ClCC(Cl)(Cl)CCl,water,298,-2.5785,mol/L,181.87699999999998,2.637900000000001,0.0,0.0,0.0
COC1[C@H](O)C(CO[C@@H]2C(O)C[C@@H](O)OC2C)O[C@@H](O[C@H]3CC[C@]4(C)C5CC[C@]6(C)[C@H](CC[C@]6(O)C5CC[C@]4(O)C3)C7=CC(=O)OC7)C1O,water,298,-1.94,mol/L,696.8310000000002,1.0785000000000022,193.82999999999998,6.0,13.0
CN(C)C(=O)c1ccc(cc1)C(=O)N(C)C,water,298,0.2656,mol/L,220.27199999999996,1.0902,40.620000000000005,0.0,2.0
O=C(Nc1ccccn1)c2cccnc2,water,298,-2.9771,mol/L,199.213,1.7288999999999999,54.88,1.0,3.0
CCN(CC)C(=O)\C(Cl)=C(/C)O[P](=O)(OC)OC,water,298,0.5233,mol/L,299.69100000000003,2.7426000000000013,65.07000000000001,0.0,5.0
[O-][N+](=O)c1ccc(ONC=C2C=C(Br)C(=O)C(=C2)Br)c(c1)[N+]([O-])=O,water,298,-6.6637,mol/L,461.02200000000016,3.4106000000000014,124.61000000000001,1.0,7.0
CCCS[P](=O)(OCC)SCCC,water,298,-2.5094,mol/L,242.34599999999995,4.417400000000004,26.3,0.0,4.0
O=C1Nc2cncnc2N1,water,298,-1.5141,mol/L,136.114,-0.35380000000000006,74.43,2.0,3.0
CN(CC(O)=O)N=O,water,298,0.9278,mol/L,118.09199999999998,-0.3157999999999999,69.97,1.0,3.0
NC(=N)NC(=N)Nc1cccc2ccccc12,water,298,-2.3151,mol/L,227.27100000000002,1.6695400000000002,97.78,5.0,2.0
CCO[P](=O)(OCC)SCc1ccccc1,water,298,-2.4155,mol/L,260.295,4.100900000000003,35.53,0.0,4.0
Nc1c(cc(Nc2ccc(c(Nc3nc(Cl)nc(Cl)n3)c2)[S](O)(=O)=O)c4C(=O)c5ccccc5C(=O)c14)[S](O)(=O)=O,water,298,0.1956,mol/L,637.4390000000003,3.5166000000000013,231.62999999999997,5.0,12.0
OC(=O)CSC(C(O)=O)c1ccccc1,water,298,-1.1559,mol/L,226.25300000000001,1.6300999999999999,74.6,2.0,3.0
CCCCNCC,water,298,-0.4405,mol/L,101.19299999999998,1.396,12.03,1.0,1.0
CN1C(=O)N(C)c2nccnc2C1=O,water,298,-1.4598,mol/L,192.178,-0.9728000000000006,69.78,0.0,6.0
CC1(C)Cc2cccc(c2O1)[N+]([O-])=O,water,298,-3.2068,mol/L,193.20199999999997,2.3083,52.37,0.0,3.0
CC1CCOC1,water,298,0.0901,mol/L,86.134,1.0428,9.23,0.0,1.0
CC(=O)N[C@@H](CSc1ccc(Cl)c(Cl)c1)C(O)=O,water,298,-2.8868,mol/L,308.18600000000004,2.6748000000000003,66.4,2.0,3.0
CCOC(=O)c1cn2nc(O[P](=S)(OCC)OCC)cc2nc1C,water,298,-4.9489,mol/L,373.37100000000015,2.890720000000001,84.18,0.0,9.0
IC1=CNC(=O)C=C1,water,298,-1.7423,mol/L,220.997,0.9795,32.86,1.0,1.0
NC(N)=NCCCCCCCCNCCCCCCCCN=C(N)N,water,298,0.3322,mol/L,355.5750000000001,1.8040000000000005,140.83,5.0,3.0
CCNc1nc(OC)nc(n1)N(CC)CC,water,298,-2.9987,mol/L,225.29599999999996,1.1581999999999995,63.17000000000001,1.0,6.0
CCCCOC(=O)C(C)OC(=O)C(C)O,water,298,-1.3752,mol/L,218.24899999999997,0.6421999999999999,72.83,1.0,5.0
NC(=O)NCNC(N)=O,water,298,-0.6525,mol/L,132.12300000000002,-1.7195,110.24000000000001,4.0,2.0
CCC(O)CN,water,298,1.0499,mol/L,89.13800000000002,-0.2839999999999999,46.25,2.0,2.0
ClC1=C(Cl)C2(Cl)C3CCC4C(CCC3C1(Cl)C2(Cl)Cl)C5(Cl)C(=C(Cl)C4(Cl)C5(Cl)Cl)Cl,water,298,-13.1719,mol/L,653.73,9.716199999999992,0.0,0.0,0.0
CCO[P](=S)(OCC)Oc1cnc2ccccc2n1,water,298,-4.1322,mol/L,298.30400000000003,3.3061000000000016,53.47,0.0,6.0
OC(=O)c1cc[n+]([O-])cc1,water,298,-1.102,mol/L,139.10999999999999,0.01820000000000016,64.24,1.0,2.0
CCCC1CCCNC1,water,298,-1.011,mol/L,127.23100000000001,1.7860999999999998,12.03,1.0,1.0
CC(CCl)O[P](=O)(OC(C)CCl)OC(C)CCl,water,298,-2.4361,mol/L,327.572,4.026200000000004,44.760000000000005,0.0,4.0
ClCC(CCl)O[P](=O)(OC(CCl)CCl)OC(CCl)CCl,water,298,-4.7893,mol/L,430.90700000000004,4.682900000000003,44.760000000000005,0.0,4.0
CCOC(=O)Nc1cccc(OC(=O)Nc2ccccc2)c1,water,298,-4.6325,mol/L,300.314,3.8659000000000017,76.66,2.0,4.0
COC(=O)Nc1cccc(OC(=O)Nc2cccc(C)c2)c1,water,298,-4.8055,mol/L,300.314,3.784220000000002,76.66,2.0,4.0
CC(=O)OC1(CCC2C3C=C(Cl)C4=CC(=O)C=CC4(C)C3CCC12C)C(C)=O,water,298,-4.9453,mol/L,402.91800000000023,4.527700000000004,60.440000000000005,0.0,4.0
OC[C@@H](NC(=O)CN=[N+]=[N-])[C@H](O)c1ccc(cc1)[N+]([O-])=O,water,298,-1.1692,mol/L,295.25500000000005,0.41559999999999964,161.45999999999998,3.0,6.0
CCC(C)N,water,298,0.1851,mol/L,73.13900000000001,0.7436,26.02,1.0,1.0
OC(=O)\C=C\CBr,water,298,-0.7403,mol/L,164.986,1.0221,37.3,1.0,1.0
CN1c2ccccc2Sc3ccc(CC(O)=O)cc13,water,298,-3.9422,mol/L,271.34099999999995,3.5462000000000016,40.54,1.0,3.0
C/C=C/CC1(C\C=C\C)C(=O)NC(=O)NC1=O,water,298,-2.1973,mol/L,236.271,1.2711999999999999,75.27000000000001,2.0,3.0
Cc1oc(cc1C([O-])=O)[C@H](O)[C@H](O)[C@H](O)CO,water,298,-1.2774,mol/L,245.207,-2.3009799999999996,134.19,4.0,7.0
CC(C)[C@@H]1CC[C@@H](C)CC1=O,water,298,-2.4921,mol/L,154.253,2.6477000000000013,17.07,0.0,1.0
CN(C)c1ncnc2nccnc12,water,298,-1.0216,mol/L,175.19500000000002,0.4857999999999999,54.800000000000004,0.0,5.0
CCOCCC(=O)OC,water,298,-0.0719,mol/L,132.159,0.5860000000000001,35.53,0.0,3.0
CCCCOC(=O)CCOCC,water,298,-1.6391,mol/L,174.23999999999995,1.7563,35.53,0.0,3.0
CCCCCOC(=O)CCOCC,water,298,-2.1956,mol/L,188.26699999999994,2.1464,35.53,0.0,3.0
CCCCCCOC(=O)CCOCC,water,298,-2.8289,mol/L,202.29399999999995,2.536500000000001,35.53,0.0,3.0
CCCOCCC(=O)OC,water,298,-0.6334,mol/L,146.18599999999998,0.9761,35.53,0.0,3.0
CCCOCCC(=O)OCCC,water,298,-1.6848,mol/L,174.23999999999995,1.7563,35.53,0.0,3.0
CCCCOCCC(=O)OCCCC,water,298,-2.4029,mol/L,202.29399999999995,2.536500000000001,35.53,0.0,3.0
Clc1ncc2nccnc2n1,water,298,-0.6988,mol/L,166.57099999999997,1.0731999999999997,51.56,0.0,4.0
C1COc2ccccc2OCCOCCOc3ccccc3OCCO1,water,298,-4.6935,mol/L,360.40600000000006,2.948800000000001,55.38000000000001,0.0,6.0
COc1ccc(Oc2ccc(NC(=O)N(C)C)cc2)cc1,water,298,-4.1558,mol/L,286.331,3.581000000000002,50.800000000000004,1.0,3.0
FC(F)(F)c1nc2cc(Cl)c(Cl)cc2n1C(=O)Oc3ccccc3,water,298,-4.4603,mol/L,375.1330000000001,5.409000000000001,44.120000000000005,0.0,4.0
Cc1cccc(C)c1NC(=O)c2cc(c(Cl)cc2O)[S](N)(=O)=O,water,298,-3.7866,mol/L,354.8150000000001,2.5621400000000008,109.48999999999998,3.0,4.0
CC(C)C(N)C(=O)NCC(O)=O,water,298,0.4579,mol/L,174.2,-0.829499999999999,92.42000000000002,3.0,3.0
CN(C)C(=O)c1cccc(c1)C(=O)N(C)C,water,298,0.487,mol/L,220.27199999999996,1.0902,40.620000000000005,0.0,2.0
OC(=O)CCC[Se][Se]CCCC(O)=O,water,298,-2.2471,mol/L,332.11600000000016,0.8759999999999999,74.6,2.0,2.0
CCOC(=O)COc1ccc(Cl)cc1,water,298,-2.4206,mol/L,214.648,2.2819000000000003,35.53,0.0,3.0
COC(=O)C(Cl)Cc1ccc(Cl)cc1,water,298,-3.7655,mol/L,233.09400000000002,2.6629000000000005,26.3,0.0,2.0
Cc1ccccc1Oc2cccnn2,water,298,-1.969,mol/L,186.21400000000003,2.5773200000000003,35.010000000000005,0.0,3.0
CN1C(=O)NN(C1=O)c2ccccc2,water,298,-2.9804,mol/L,191.19000000000003,-0.13570000000000104,59.79,1.0,4.0
NC(=O)c1ccccc1OCC=C,water,298,-2.2273,mol/L,177.20299999999995,1.3503,52.32000000000001,1.0,2.0
CCCC\C=C\C,water,298,-3.8298,mol/L,98.18899999999998,2.752700000000001,0.0,0.0,0.0
CCN1C=C(C(O)=O)C(=O)c2cc3OCOc3cc12,water,298,-4.9119,mol/L,261.23299999999995,1.4483,77.76,1.0,5.0
CC(C)C1NC(=O)CNC1=O,water,298,-0.8926,mol/L,156.18499999999997,-0.7430000000000001,58.2,2.0,2.0
CC(=O)/C=C/C1=C(C)CCCC1(C)C,water,298,-3.0561,mol/L,192.30199999999996,3.6582000000000026,17.07,0.0,1.0
CCCC(C)C(O)CC,water,298,-1.9636,mol/L,130.23099999999997,2.1935000000000002,20.23,1.0,1.0
CC1(C)CCC2(CCC(C)(C)O2)O1,water,298,-1.9644,mol/L,184.279,2.8607000000000014,18.46,0.0,2.0
Oc1ccccc1[S](=O)(=O)c2ccccc2O,water,298,-3.3192,mol/L,250.275,1.9306000000000005,74.6,2.0,4.0
[O-]C(=O)[C@H](Cc1ccccc1)[NH2+]CCC#N,water,298,-1.4939,mol/L,218.25599999999997,-1.1753199999999993,80.53,1.0,3.0
ClC(Cl)C(Cl)C(Cl)Cl,water,298,-2.7223,mol/L,216.322,3.2012,0.0,0.0,0.0
NC(Cc1cc(Cl)c(O)c(Cl)c1)C(O)=O,water,298,-1.7546,mol/L,250.081,1.6533999999999998,83.55000000000001,3.0,3.0
OC(=O)CC(O)(CC(O)=O)C(=O)Nc1ccccc1,water,298,-0.4874,mol/L,267.237,0.3055999999999997,123.93,4.0,4.0
COC(=O)c1ccc(O)c(I)c1,water,298,-3.3138,mol/L,278.04499999999996,1.7833999999999999,46.53,1.0,3.0
CCOC(=O)c1ccc(O)c(I)c1,water,298,-3.4924,mol/L,292.072,2.1734999999999998,46.53,1.0,3.0
CCCOC(=O)c1ccc(O)c(I)c1,water,298,-3.6865,mol/L,306.09899999999993,2.563600000000001,46.53,1.0,3.0
CCCCOC(=O)c1ccc(O)c(I)c1,water,298,-3.9033,mol/L,320.126,2.9537000000000013,46.53,1.0,3.0
C[C@@H](Oc1ccc(Cl)cc1Cl)C(O)=O,water,298,-2.6003,mol/L,235.06599999999997,2.845300000000001,46.53,1.0,2.0
CNC(=O)O\N=C1/[C@@H](Cl)C2C[C@H](C#N)C1C2,water,298,-2.0822,mol/L,241.67799999999997,1.48538,74.47999999999999,1.0,4.0
CCN(CC)C(=O)C(C)Oc1cccc2ccccc12,water,298,-3.5702,mol/L,271.36,3.475500000000002,29.540000000000003,0.0,2.0
OC(=O)Cc1ccccc1Nc2c(Cl)cccc2Cl,water,298,-5.0968,mol/L,296.153,4.364100000000001,49.33,2.0,2.0
Ic1ccccc1C(=O)Nc2ccccc2,water,298,-4.2084,mol/L,323.13300000000004,3.5435000000000008,29.1,1.0,1.0