Solute,Solvent,Temperature_K,Solubility,Units,MW,LogP,TPSA,HBD,HBA
CCCCCCc1ccc(O)cc1O,water,298,-2.442696664,mol/L,194.274,3.2206000000000023,40.46,2.0,2.0
Nc1ccc(\C=C\c2ccc(N)cc2[S](O)(=O)=O)c(c1)[S](O)(=O)=O,water,298,-2.755767001,mol/L,370.4080000000001,1.5148000000000006,160.78,4.0,6.0
O=C1CCCCCCCCCCCN1,water,298,-2.502783819,mol/L,197.32199999999997,3.0172000000000008,29.1,1.0,1.0
[Na+].O[S](=O)(=O)CCN1CCN(CC1)CC[S]([O-])(=O)=O,water,298,-2.747593942,mol/L,324.356,-4.958999999999995,118.04999999999998,1.0,7.0
Clc1ccc2N(C3CC[NH2+]CC3)C(=O)Nc2c1,water,298,-2.663075861,mol/L,252.72499999999997,0.8812999999999995,54.4,2.0,2.0
CC(=C)C1CCC(=CC1)C,water,298,-2.4019045,mol/L,136.238,3.308900000000002,0.0,0.0,0.0
Clc1ccccc1,water,298,-2.32059795,mol/L,112.55899999999997,2.34,0.0,0.0,0.0
Clc1ccccc1,water,298,-2.349812241,mol/L,112.55899999999997,2.34,0.0,0.0,0.0
Clc1ccccc1,water,298,-2.350676509,mol/L,112.55899999999997,2.34,0.0,0.0,0.0
Clc1ccccc1,water,298,-2.35327968,mol/L,112.55899999999997,2.34,0.0,0.0,0.0
Clc1ccccc1,water,298,-2.375601884,mol/L,112.55899999999997,2.34,0.0,0.0,0.0
Clc1ccccc1,water,298,-2.400102212,mol/L,112.55899999999997,2.34,0.0,0.0,0.0
CC(CC=O)CC(C)(C)C,water,298,-2.675906595,mol/L,142.242,2.6477000000000013,17.07,0.0,1.0
Clc1ccccc1,water,298,-2.58155821,mol/L,112.55899999999997,2.34,0.0,0.0,0.0
Clc1ccccc1,water,298,-2.735409881,mol/L,112.55899999999997,2.34,0.0,0.0,0.0
[O-][N+](=O)c1ccc(Cl)cc1,water,298,-2.896404951,mol/L,157.55599999999998,2.2481999999999998,43.14,0.0,2.0
Clc1ccccc1Cl,water,298,-3.0533858,mol/L,147.00399999999996,2.9934000000000003,0.0,0.0,0.0
CC(=C)C1CCC(=CC1)C,water,298,-3.055117013,mol/L,136.238,3.308900000000002,0.0,0.0,0.0
COc1ccc(\C=C\C)cc1,water,298,-3.125539877,mol/L,148.20499999999998,2.728300000000001,9.23,0.0,1.0
CN(C)C(=O)Nc1cccc(c1)C(F)(F)F,water,298,-3.320548588,mol/L,232.20499999999996,2.7989000000000006,32.34,1.0,1.0
CCCCCl,water,298,-2.925072887,mol/L,92.56899999999999,2.0253,0.0,0.0,0.0
CCCCC(CC)CO[P](O)(=O)OCC(CC)CCCC,water,298,-3.508430056,mol/L,322.4260000000001,5.552800000000006,55.760000000000005,1.0,3.0
[Cl-].[Cl-].[Cl-].[Cr+3],water,298,-3.199631781,mol/L,158.35500000000002,-8.990499999999999,0.0,0.0,0.0
NC1=Nc2[nH]cc(CCc3ccc(cc3)C(O)=O)c2C(=O)N1,water,298,-3.574289037,mol/L,298.302,1.3168,124.85999999999999,4.0,4.0
C.[Mo].[Mo],water,298,-3.420275441,mol/L,207.923,0.6311,0.0,0.0,0.0
CC(=C)C1CCC(=CC1)C,water,298,-3.240536497,mol/L,136.238,3.308900000000002,0.0,0.0,0.0
CC(C)c1ccccc1,water,298,-3.380916398,mol/L,120.19499999999995,2.8100000000000014,0.0,0.0,0.0
CC(Cc1ccc(cc1)C(C)(C)C)C=O,water,298,-3.657083487,mol/L,204.31299999999996,3.361600000000002,17.07,0.0,1.0
Clc1ccc(Cl)c(Cl)c1,water,298,-3.656694588,mol/L,181.449,3.6468000000000007,0.0,0.0,0.0
[Na+].CCCCCCCCCCCCCCCC(=O)N1[C@@H](CCC1=O)C([O-])=O,water,298,-4.022319118,mol/L,389.5120000000001,0.7392000000000005,77.50999999999999,0.0,4.0
CCOC(=O)N(c1ccccc1)c2ccccc2,water,298,-3.969239559,mol/L,241.29000000000002,3.981200000000003,29.54,0.0,2.0
CCC(C)c1cc(cc(c1O)[N+]([O-])=O)[N+]([O-])=O,water,298,-4.009532261,mol/L,240.21499999999997,2.7221000000000024,106.50999999999999,1.0,5.0
C.[Mo].[Mo],water,298,-4.238721287,mol/L,207.923,0.6311,0.0,0.0,0.0
[O--].[O--].[O--].[O--].[O--].[O--].[Al+3].[Al+3].[Ca++].[Ca++].[Ca++].[Ca++].[Ca++].[Ca++].[O-][S]([O-])(=O)=O.[O-][S]([O-])(=O)=O.[O-][S]([O-])(=O)=O,water,298,-3.074227426,mol/L,678.6150000000002,-7.773199999999997,411.78,0.0,12.0
CC(C)CCCC(C)CCCC(C)CCCCC(C)CCCC(C)CCCC(C)C,water,298,-4.848010434,mol/L,422.8260000000003,11.08439999999999,0.0,0.0,0.0
Nc1ccc(OCc2cccc(F)c2)c(Cl)c1,water,298,-4.693292334,mol/L,251.68800000000002,3.6403000000000016,35.25,1.0,2.0
Oc1c(Br)c2ccccc2nc1C3C(=O)c4ccccc4C3=O,water,298,-4.867097266,mol/L,368.18600000000015,3.865700000000002,67.26,1.0,4.0
CC(C)CCCC(C)CCCC(C)CCCCC(C)CCCC(C)CCCC(C)C,water,298,-5.14904043,mol/L,422.8260000000003,11.08439999999999,0.0,0.0,0.0
O=C1CCCCCCCCCC\C=C/CCC1,water,298,-5.072615639,mol/L,236.39899999999994,5.196600000000005,17.07,0.0,1.0
NC1=Nc2[nH]cc(CCc3ccc(cc3)C(O)=O)c2C(=O)N1,water,298,-5.406470303,mol/L,298.302,1.3168,124.85999999999999,4.0,4.0
CC(C)CCCC(C)CCCC(C)CCCCC(C)CCCC(C)CCCC(C)C,water,298,-5.626161685,mol/L,422.8260000000003,11.08439999999999,0.0,0.0,0.0
[Ca++].[O-][Sn]([O-])=O,water,298,-5.616551128,mol/L,206.786,-3.2584,63.19,0.0,3.0
CCCCCCCCCCCCCCC/C=C/CC(CC(O)=O)C(O)=O,water,298,-6.964445851,mol/L,368.55800000000005,6.589500000000006,74.6,2.0,2.0
CCCCCCCCCCCCCCCCOc1ccccc1C(=O)CC(=O)Nc2scc(n2)c3ccccc3,water,298,-4.847279535,mol/L,562.8200000000002,9.881699999999999,68.29,1.0,5.0
CC(C)OCCOC(C)=O,water,298,-0.165775242,mol/L,146.18599999999998,0.9744999999999999,35.53,0.0,3.0
[NH4+].[NH4+].[NH4+].[Cl-].[Cl-].[Cl-].[Cl-].[Cl-].[Cl-].[Rh+3],water,298,-0.56876707,mol/L,369.74100000000004,-16.84989999999998,109.5,3.0,0.0
CC(CC(O)=O)CC(C)(C)C(O)=O,water,298,-0.279037497,mol/L,188.22299999999996,1.5981,74.6,2.0,2.0
OC(=O)c1cc(ccc1O)[S](O)(=O)=O,water,298,0.655490272,mol/L,218.18599999999998,0.3371,111.9,3.0,4.0
N[S](O)(=O)=O.C1COCCN1,water,298,0.727886015,mol/L,184.21699999999998,-1.6458999999999988,101.65,3.0,4.0
[F-].[K+],water,298,1.228407286,mol/L,58.096000000000004,-5.992,0.0,0.0,0.0
OCCN1CCNC1=O,water,298,0.877677326,mol/L,130.147,-0.9961,52.57,2.0,2.0
Nc1ccc(OCCO)c(N)c1,water,298,-0.233704176,mol/L,168.196,0.2220999999999999,81.5,3.0,4.0
CC(=C)C(O)=O,water,298,0.056273368,mol/L,86.08999999999999,0.6471,37.3,1.0,1.0
CC(=C)C(=O)OC(=O)C(C)=C,water,298,-0.196759712,mol/L,154.16499999999996,1.2084,43.370000000000005,0.0,3.0
[Na+].[O-]C=O,water,298,1.155112648,mol/L,68.007,-4.629899999999999,40.129999999999995,0.0,2.0
CC[N+](CC)(CC)CC.[O-]C(=O)c1ccccc1,water,298,0.583312842,mol/L,251.37,1.9328999999999996,40.129999999999995,0.0,2.0
[Na+].[O-]C#N,water,298,0.17111691,mol/L,65.007,-4.168220000000001,46.849999999999994,0.0,2.0
[Na+].OC([O-])=O,water,298,0.057960927,mol/L,84.00599999999999,-4.1083,60.36,1.0,2.0
OCCNCCO,water,298,0.957792794,mol/L,105.137,-1.4393999999999998,52.489999999999995,3.0,3.0
O=C1NCCN1,water,298,1.042750719,mol/L,86.09400000000001,-0.7008000000000001,41.13,2.0,1.0
C=CC(=O)OCCOCCOCCOCCOC(=O)C=C,water,298,-0.500013296,mol/L,302.323,0.49459999999999993,80.29000000000002,0.0,7.0
CCC1CO1,water,298,0.122025944,mol/L,72.107,0.7952,12.53,0.0,1.0
[Na+].CCN(CC)c1cc2[o+]c3cc(N(CC)CC)c(C)cc3c(c2cc1C)c4ccc(cc4[S]([O-])(=O)=O)[S]([O-])(=O)=O,water,298,-0.80532039,mol/L,608.7140000000003,2.655540000000002,132.18,0.0,8.0
CCC1CO1,water,298,0.119746178,mol/L,72.107,0.7952,12.53,0.0,1.0
CC(C)CO,water,298,0.107770617,mol/L,74.12299999999999,0.6347,20.23,1.0,1.0
[Na+].[O-]C=O,water,298,1.144712595,mol/L,68.007,-4.629899999999999,40.129999999999995,0.0,2.0
[Na+].[Br-],water,298,0.963501086,mol/L,102.89399999999999,-5.992,0.0,0.0,0.0
COCCOCCOC,water,298,0.84545625,mol/L,134.175,0.29580000000000006,27.69,0.0,3.0
C/C=C/C(O)=O,water,298,0.038175146,mol/L,86.08999999999999,0.6471,37.3,1.0,1.0
[Ba++].[O-][N+]([O-])=O.[O-][N+]([O-])=O,water,298,-0.444071386,mol/L,261.336,-0.8590000000000002,132.4,0.0,6.0
Oc1ccc(O)cc1,water,298,-0.068706797,mol/L,110.11199999999998,1.0977999999999999,40.46,2.0,2.0
[Zn++].[O-]C(=O)C1CCC(=O)N1.[O-]C(=O)C2CCC(=O)N2,water,298,-0.534193588,mol/L,321.60400000000004,-3.972699999999997,138.45999999999998,2.0,6.0
[Na+].[Na+].[Na+].[O-]C(=O)CN(CC([O-])=O)CC([O-])=O,water,298,0.558406211,mol/L,257.0849999999999,-14.449900000000003,123.63,0.0,7.0
[Ca++].O[P](O)([O-])=O.O[P](O)([O-])=O,water,298,-0.396643053,mol/L,234.04999999999998,-3.5020000000000002,161.18,4.0,4.0
[Na+].OC([O-])=O,water,298,0.04603657,mol/L,84.00599999999999,-4.1083,60.36,1.0,2.0
[Cl].[Fe].[O-][S]([O-])(=O)=O,water,298,0.691108632,mol/L,187.361,-0.6509999999999998,80.25999999999999,0.0,4.0
[Cl-].[Cl-].[Cl-].[Fe+3],water,298,0.753726268,mol/L,162.204,-8.990499999999999,0.0,0.0,0.0
[Fe++].[O-][S]([O-])(=O)=O,water,298,0.782207181,mol/L,151.908,-1.3405,80.25999999999999,0.0,4.0
[Cl].[Fe].[O-][S]([O-])(=O)=O,water,298,0.690636316,mol/L,187.361,-0.6509999999999998,80.25999999999999,0.0,4.0
[Cl-].[Cl-].[Cl-].[Fe+3],water,298,0.753253952,mol/L,162.204,-8.990499999999999,0.0,0.0,0.0
[Fe++].[O-][S]([O-])(=O)=O,water,298,0.781734866,mol/L,151.908,-1.3405,80.25999999999999,0.0,4.0
[Cl].[Fe].[O-][S]([O-])(=O)=O,water,298,0.687315643,mol/L,187.361,-0.6509999999999998,80.25999999999999,0.0,4.0
[Cl-].[Cl-].[Cl-].[Fe+3],water,298,0.749933279,mol/L,162.204,-8.990499999999999,0.0,0.0,0.0
[Fe++].[O-][S]([O-])(=O)=O,water,298,0.778414192,mol/L,151.908,-1.3405,80.25999999999999,0.0,4.0
[K+].CN(C)CC([O-])=O,water,298,0.809172864,mol/L,141.21099999999998,-4.698099999999998,43.37,0.0,3.0
[K+].OC([O-])=O,water,298,0.953747696,mol/L,100.11399999999999,-4.1083,60.36,1.0,2.0
CC(=C)CCO,water,298,0.019067893,mol/L,86.134,0.9448999999999999,20.23,1.0,1.0
O=C1CCCCC1,water,298,-0.03762567,mol/L,98.14500000000001,1.5196,17.07,0.0,1.0
[Na+].CCC(C)c1cc(cc(n2nc3ccccc3n2)c1O)[S]([O-])(=O)=O,water,298,-1.57624495,mol/L,369.3780000000001,-0.4523000000000003,108.13999999999999,1.0,7.0
OC(Cn1ccnc1)c2ccc(Cl)cc2Cl,water,298,-1.421576903,mol/L,257.12,2.9235000000000015,38.05,1.0,3.0
NCCN,water,298,-0.792102738,mol/L,60.09999999999999,-1.0962,52.04,2.0,2.0
Cc1ccc(N)cc1,water,298,-1.047745261,mol/L,107.156,1.5772199999999998,26.02,1.0,1.0
OC1=CC(=O)NC=N1,water,298,-1.067287887,mol/L,112.088,-0.5245000000000002,65.97999999999999,2.0,3.0
[Na+].[Na+].Cc1ccc(cc1[S]([O-])(=O)=O)[S](=O)(=O)c2cc(NC(=O)C(Br)=C)ccc2N=Nc3c(N)ccc4cc(ccc34)[S]([O-])(=O)=O,water,298,-1.894836231,mol/L,753.5419999999999,-1.3580799999999924,228.38000000000002,2.0,12.0
CC1CCC2C(C1)C(=O)OC2=O,water,298,-1.24808173,mol/L,168.19199999999998,1.1221999999999999,43.370000000000005,0.0,3.0
Sc1ccccc1Cl,water,298,-1.188043537,mol/L,144.62599999999998,2.6287000000000003,0.0,1.0,1.0
CCOc1ccccc1O,water,298,-1.171451504,mol/L,138.16599999999997,1.7908999999999997,29.46,1.0,2.0
CCC1(COCOC1)COC(=O)C=C,water,298,-1.333054875,mol/L,200.23399999999995,1.1162999999999998,44.760000000000005,0.0,4.0
C[C@@](CCC([O-])=O)(N=N[C@](C)(CCC([O-])=O)C#N)C#N,water,298,-1.475980318,mol/L,278.268,-0.936639999999999,152.55999999999997,0.0,8.0
CC(C)OC(=O)C(F)(F)F,water,298,-1.224928301,mol/L,156.10299999999998,1.5003000000000002,26.3,0.0,2.0
COc1cc(C=O)ccc1O,water,298,-1.228026593,mol/L,152.14899999999997,1.2132999999999998,46.53,1.0,3.0
BrCBr,water,298,-1.285894713,mol/L,173.83499999999998,1.7337,0.0,0.0,0.0
[Na+].[Na+].[O-][Se]([O-])=O,water,298,0.715388416,mol/L,172.93699999999998,-8.8696,63.19,0.0,3.0
[Na+].[Cl-].[O-]C(=O)c1ccc[n+](Cc2ccccc2)c1,water,298,0.519220267,mol/L,271.679,-5.606099999999996,44.01,0.0,2.0
[Na+].[Na+].[O-][Se]([O-])=O,water,298,0.714904522,mol/L,172.93699999999998,-8.8696,63.19,0.0,3.0
CC(C)(N)C#C,water,298,1.031655988,mol/L,83.13399999999999,0.3569000000000001,26.02,1.0,1.0
CN=C(NCC1CCOC1)N[N+]([O-])=O,water,298,-0.353018777,mol/L,202.214,-0.6203999999999994,88.78999999999999,2.0,4.0
[Na+].[O-][V](=O)=O,water,298,0.266461374,mol/L,121.93099999999998,-4.425100000000001,57.199999999999996,0.0,3.0
[Na+].[Na+].CCN1C(=O)C(=N/Nc2cc(Nc3nc(F)nc(Nc4cc(ccc4Cl)[S]([O-])(=O)=O)n3)ccc2[S]([O-])(=O)=O)\C(=C(C(N)=O)C1=O)C,water,298,-0.921034384,mol/L,742.035,-5.0740999999999925,281.99,4.0,16.0
CC(C)C(N)C(O)=O,water,298,-0.121791608,mol/L,117.14799999999998,0.05430000000000007,63.32,2.0,2.0
CN(C)CCCNCCCN(C)C,water,298,0.668404592,mol/L,187.331,0.47940000000000116,18.509999999999998,1.0,3.0
CC(O)CNCC(C)O,water,298,0.815044373,mol/L,133.191,-0.6623999999999999,52.489999999999995,3.0,3.0
CCOC(C)=O,water,298,-0.00101661,mol/L,88.106,0.5694,26.3,0.0,2.0
C1N2CN3CN1CN(C2)C3,water,298,0.792402682,mol/L,140.19,-1.0197999999999992,12.96,0.0,4.0
O=C1CCCCCN1,water,298,0.884275563,mol/L,113.16000000000001,0.6766000000000001,29.1,1.0,1.0
O.O.O.O.O.O.O.[Cl-].[Cl-].[Cl-].[La+3],water,298,0.365226597,mol/L,371.37,-14.760899999999994,220.5,0.0,0.0
CCC1CO1,water,298,0.080542298,mol/L,72.107,0.7952,12.53,0.0,1.0
[Al+3].[O-]C=O.[O-]C=O.[O-]C=O,water,298,-0.274600322,mol/L,162.033,-5.282499999999999,120.38999999999999,0.0,6.0
O=C1CCCCC1,water,298,-0.057369728,mol/L,98.14500000000001,1.5196,17.07,0.0,1.0
[Cl-].[Cl-].[Zn++],water,298,0.79544645,mol/L,136.296,-5.9945,0.0,0.0,0.0
[NH4+].[NH4+].[O-][S](=O)(=O)OO[S]([O-])(=O)=O,water,298,0.571095673,mol/L,228.20399999999998,-1.3926000000000003,205.85999999999996,2.0,8.0
[Na+].[O-]C(=O)CCl,water,298,0.863171292,mol/L,116.479,-4.020899999999999,40.129999999999995,0.0,2.0
CC(O)C(N)C(O)=O,water,298,-0.143003863,mol/L,119.11999999999999,-1.2208999999999997,83.55000000000001,3.0,3.0
CC(C)CO,water,298,0.059465937,mol/L,74.12299999999999,0.6347,20.23,1.0,1.0
CC(C)CCO,water,298,-0.015803391,mol/L,88.14999999999999,1.0248,20.23,1.0,1.0
[Na+].[O-]N=O,water,298,1.089578233,mol/L,68.99499999999999,-2.7453999999999996,52.49,0.0,3.0
[Cl-].C[N+](C)(C)CC(O)CCl,water,298,0.647406308,mol/L,188.09799999999998,-2.703699999999997,20.23,1.0,1.0
[Cl-].C[N+](C)(C)CC(O)CCl,water,298,0.647302298,mol/L,188.09799999999998,-2.703699999999997,20.23,1.0,1.0
CC(O)CN(CC(C)O)CC(C)O,water,298,0.637428964,mol/L,191.271,-0.5691999999999999,63.93000000000001,3.0,4.0
CC(C)(CO)CO,water,298,0.901422988,mol/L,104.14899999999999,-0.0028000000000000247,40.46,2.0,2.0
CCOC(C)=O,water,298,-0.025404461,mol/L,88.106,0.5694,26.3,0.0,2.0
[Cl].[Cl].[Rh].[Rh].C\1C\C=C/CC\C=C1.C\2C\C=C/CC\C=C2,water,298,-2.499798074,mol/L,493.0860000000004,6.719600000000004,0.0,0.0,0.0
[K+].OC(=O)c1ccccc1C([O-])=O,water,298,-0.391024433,mol/L,204.22199999999998,-3.2476999999999983,77.43,1.0,3.0
[Na+].[Na+].[Na+].[Na+].[Na+].[Na+].[O-][W]([O-])(=O)=O.[O-][W]([O-])(=O)=O.[O-][W]([O-])(=O)=O.O=[W](=O)=O.O=[W](=O)=O.O=[W](=O)=O.O=[W](=O)=O.O=[W](=O)=O.O=[W](=O)=O.O=[W](=O)=O.O=[W](=O)=O.O=[W](=O)=O,water,298,-0.472461116,mol/L,2967.9809999999984,-29.060400000000023,701.6700000000004,0.0,39.0
C[Sn](C)(Cl)Cl,water,298,0.573595477,mol/L,219.687,2.1658,0.0,0.0,0.0
[Na+].[O-]C(=O)CCl,water,298,0.848624184,mol/L,116.479,-4.020899999999999,40.129999999999995,0.0,2.0
O=C1CCCCCN1,water,298,0.860120914,mol/L,113.16000000000001,0.6766000000000001,29.1,1.0,1.0
[Na+].[O-]C=O,water,298,1.081260235,mol/L,68.007,-4.629899999999999,40.129999999999995,0.0,2.0
[Na+].[O-]N=O,water,298,1.074996233,mol/L,68.99499999999999,-2.7453999999999996,52.49,0.0,3.0
[Na+].Cc1ccc(cc1)[S]([O-])(=O)=O,water,298,0.624533151,mol/L,194.18699999999995,-2.096879999999998,57.199999999999996,0.0,3.0
COc1ccc([NH2+]CCO)cc1[NH3+].[O-][S]([O-])(=O)=O,water,298,-0.534342295,mol/L,280.3020000000001,-2.5821999999999985,153.97,3.0,6.0
C=CCNCC=C,water,298,-0.079006957,mol/L,97.16099999999999,0.948,12.03,1.0,1.0
CO[P](=O)(CCC(=O)NCO)OC,water,298,1.578490674,mol/L,211.154,-0.0716,84.86000000000001,2.0,5.0
NC(CO)(CO)CO,water,298,0.819816758,mol/L,121.136,-2.3391999999999995,86.71000000000001,4.0,4.0
[Ca++].CCCCC(CC)C([O-])=O.CCCCC(CC)C([O-])=O,water,298,-0.608613835,mol/L,326.49000000000007,1.5246000000000002,80.25999999999999,0.0,4.0
CCOC(C)=O,water,298,-0.04028994,mol/L,88.106,0.5694,26.3,0.0,2.0
OCCN(CCO)c1nc(Nc2ccccc2)nc(Nc3ccc(\C=C\c4ccc(Nc5nc(Nc6ccccc6)nc(n5)N(CCO)CCO)cc4[S](O)(=O)=O)c(c3)[S](O)(=O)=O)n1,water,298,-1.059279349,mol/L,917.0,3.2767999999999997,321.5999999999999,10.0,20.0
N#CCCCCC#N,water,298,-0.130912442,mol/L,108.144,1.59396,47.58,0.0,2.0
CC(=O)CC(=O)Nc1ccccc1,water,298,-1.299081064,mol/L,177.203,1.6041999999999998,46.17,1.0,2.0
O=C1OC(=O)c2cc3C(=O)OC(=O)c3cc12,water,298,-1.392734785,mol/L,218.11999999999995,-0.5045999999999998,94.56,0.0,6.0
ClCCCl,water,298,-1.050977015,mol/L,98.96000000000001,1.464,0.0,0.0,0.0
CO[S]([O-])(=O)=O.CN(N=CC1=[N+](C)c2ccccc2C1(C)C)c3ccc(C)cc3,water,298,-1.676206054,mol/L,417.5310000000002,3.2162200000000025,85.04,0.0,6.0
COc1ccc(cc1)N(C)N=CC2=[N+](C)c3ccccc3C2(C)C.CO[S]([O-])(=O)=O,water,298,-1.692536484,mol/L,433.5300000000002,2.916400000000001,94.26999999999998,0.0,7.0
CCCCC(CC)(CO)CO,water,298,-1.260334336,mol/L,160.257,1.5575999999999999,40.46,2.0,2.0
Cc1ccc(O)c(C)c1,water,298,-1.142965034,mol/L,122.16699999999999,2.0090399999999997,20.23,1.0,1.0
ClCCOCOCCCl,water,298,-1.298125842,mol/L,173.039,1.4547,18.46,0.0,2.0
ClC(Cl)Cl,water,298,-1.137405046,mol/L,119.37800000000001,1.9864,0.0,0.0,0.0
CI,water,298,-1.214583849,mol/L,141.939,1.0512000000000001,0.0,0.0,0.0
NC(CCC(O)=O)C(O)=O,water,298,-1.231187493,mol/L,147.13,-0.7369000000000001,100.62,3.0,3.0
NC(CCC(O)=O)C(O)=O,water,298,-1.232698084,mol/L,147.13,-0.7369000000000001,100.62,3.0,3.0
CC\C=C(/C)C=O,water,298,-1.057369728,mol/L,98.14499999999998,1.5416,17.07,0.0,1.0
NC(CCC(O)=O)C(O)=O,water,298,-1.234720413,mol/L,147.13,-0.7369000000000001,100.62,3.0,3.0
O=C1OC(=O)c2cc3C(=O)OC(=O)c3cc12,water,298,-1.406221724,mol/L,218.11999999999995,-0.5045999999999998,94.56,0.0,6.0
CCCCOC(=O)CCC(C)=O,water,298,-1.306674746,mol/L,172.22399999999996,1.6989,43.370000000000005,0.0,3.0
CC1CCC2C(C1)C(=O)OC2=O,water,298,-1.301526049,mol/L,168.19199999999998,1.1221999999999999,43.370000000000005,0.0,3.0
[Li+].[Li+].[O-]C([O-])=O,water,298,-0.944306381,mol/L,73.89,-8.439,63.19,0.0,3.0
[Ca++].CCCCC(CC)C([O-])=O.CCCCC(CC)C([O-])=O,water,298,-1.591715559,mol/L,326.49000000000007,1.5246000000000002,80.25999999999999,0.0,4.0
OC(=O)CC1(CCCCC1)CC(O)=O,water,298,-1.385083875,mol/L,200.23399999999998,1.8863,74.6,2.0,2.0
Cc1cccc(C)c1N,water,298,-1.167514488,mol/L,121.183,1.88564,26.02,1.0,1.0
COC(=O)C1CCC(CC1)C(=O)OC,water,298,-1.387194666,mol/L,200.23399999999998,1.1387999999999998,52.60000000000001,0.0,4.0
CC(C)C(C)=O,water,298,-1.020831459,mol/L,86.13399999999999,1.2314,17.07,0.0,1.0
[Na+].CCCCC(CC)COC(=O)CC(C(=O)OCC(CC)CCCC)[S]([O-])(=O)=O,water,298,-1.735714189,mol/L,444.5660000000003,0.8135000000000014,109.80000000000001,0.0,7.0
NC(=O)c1ccc(N)cc1,water,298,-1.225545386,mol/L,136.154,0.3677,69.11,2.0,2.0
CN1C(=O)N(C)c2nc[nH]c2C1=O,water,298,-1.35258526,mol/L,180.16699999999997,-1.039700000000001,72.68,1.0,5.0
CC(=O)c1ccccc1,water,298,-1.176637403,mol/L,120.15099999999995,1.8892,17.07,0.0,1.0
CC(CC#N)CC(C)(C)C#N.CC(CC(C)(C)CC#N)C#N,water,298,-1.574682221,mol/L,300.45,4.952120000000005,95.16,0.0,4.0
CN(C)Cc1ccccc1,water,298,-1.227918826,mol/L,135.20999999999998,1.7482,3.24,0.0,1.0
ClC(Cl)Cl,water,298,-1.173834312,mol/L,119.37800000000001,1.9864,0.0,0.0,0.0
[NH4+].[Br-],water,298,1.908299785,mol/L,97.943,-2.6198,36.5,1.0,0.0
C=CC(=O)OCC1CCCO1,water,298,-0.295451716,mol/L,156.18099999999998,0.8945999999999998,35.53,0.0,3.0
OC(=O)\C=C\C(O)=O,water,298,0.83179875,mol/L,116.07199999999999,-0.28819999999999985,74.6,2.0,2.0
[K+].CC(=O)CC(=O)Nc1ccc(cc1)[S]([O-])(=O)=O,water,298,0.421747335,mol/L,295.3570000000001,-2.4876999999999985,103.37,1.0,5.0
CCOC1=C(O)C(=O)O[C@@H]1[C@@H](O)CO,water,298,0.580970652,mol/L,204.178,-0.9289000000000003,96.22000000000001,3.0,6.0
[Na+].[Na+].[Na+].[Na+].CC(O)([P]([O-])([O-])=O)[P]([O-])([O-])=O,water,298,0.420460109,mol/L,293.95500000000004,-15.504200000000003,146.60999999999999,1.0,7.0
COC(=O)\C=C/C(=O)OC,water,298,-0.267204876,mol/L,144.12599999999998,-0.11140000000000017,52.60000000000001,0.0,4.0
Cc1cc(O)ccc1O,water,298,-0.207417517,mol/L,124.13899999999997,1.4062199999999998,40.46,2.0,2.0
CNC(=O)NC,water,298,0.938636234,mol/L,88.11,-0.4548000000000001,41.13,2.0,1.0
S,water,298,1.350555544,mol/L,34.083,0.11280000000000001,0.0,0.0,0.0
[NH4+].[NH4+].[NH4+].[NH4+].[O-][Mo]([O-])(=O)=O.[O-][Mo]([O-])(=O)=O,water,298,-2.580479862,mol/L,392.028,-3.7314000000000025,306.52,4.0,8.0
[Na+].CCCCC(CC)CN(CCC(O)=O)CCC([O-])=O,water,298,0.410469265,mol/L,295.355,-1.876499999999996,80.66999999999999,1.0,4.0
[Li+].[Li+].[O-]C(=O)CCCCC([O-])=O,water,298,-0.314450306,mol/L,158.008,-7.945400000000004,80.25999999999999,0.0,4.0
[Li+].[Li+].[O-]C(=O)CCCCCCCCC([O-])=O,water,298,-0.446420352,mol/L,214.11599999999996,-6.384999999999998,80.25999999999999,0.0,4.0
[Li+].[Li+].[O-]C(=O)CCCCCCCC([O-])=O,water,298,-0.416994444,mol/L,200.08899999999997,-6.7751,80.25999999999999,0.0,4.0
[Cu++].CC([O-])=O.CC([O-])=O,water,298,-0.375535712,mol/L,181.634,-2.490099999999999,80.25999999999999,0.0,4.0