Solute,Solvent,Temperature_K,Solubility,Units,MW,LogP,TPSA,HBD,HBA
CCCCCCCCCCCCC,water,298,-7.5936,mol/L,184.36699999999996,5.317300000000005,0.0,0.0,0.0
CCCCCCCCCCCCCC,water,298,-7.9551,mol/L,198.39399999999995,5.707400000000006,0.0,0.0,0.0
CCCCCCCCCCCCCCC,water,298,-9.4464,mol/L,212.42099999999994,6.097500000000006,0.0,0.0,0.0
CCCCCCCCCCCCCCCO,water,298,-6.3476,mol/L,228.41999999999993,5.069900000000006,20.23,1.0,1.0
CCCCCCCCCCCCCCCCCCCCCCCCCC,water,298,-8.3339,mol/L,366.7180000000002,10.388599999999993,0.0,0.0,0.0
CCCCCCCCCCCCCCCCCCCCCCCCCCCCCCCCCCCC,water,298,-8.4746,mol/L,506.9880000000006,14.289599999999968,0.0,0.0,0.0
ClCC(Cl)(Cl)Cl,water,298,-2.1955,mol/L,167.85,2.5954000000000006,0.0,0.0,0.0
CCC1(NC(=O)NC1=O)c2ccccc2,water,298,-2.1702,mol/L,204.229,1.1312999999999998,58.2,2.0,2.0
OC(=O)C(Br)Br,water,298,0.9861,mol/L,217.844,1.1869,37.3,1.0,1.0
Cc1cc(N[S](=O)(=O)c2ccc(N)cc2)sn1,water,298,-1.0762,mol/L,269.351,1.8345199999999997,85.08,2.0,5.0
NCC(O)C(O)=O,water,298,-0.8369,mol/L,105.09299999999999,-1.6094000000000002,83.55000000000001,3.0,3.0
CN(C)C(=O)N(C)C,water,298,0.9349,mol/L,116.16399999999999,0.22960000000000003,23.550000000000004,0.0,1.0
OC(=O)c1c(Cl)c(Cl)c(Cl)c(Cl)c1C(O)=O,water,298,-1.9264,mol/L,303.9120000000001,3.6966,74.6,2.0,2.0
CC1=C(C=C)/C(NC1=O)=C/c2[nH]c(Cc3[nH]c(\C=C\4NC(=O)C(=C4C)C=C)c(C)c3CCC(O)=O)c(CCC(O)=O)c2C,water,298,-4.8127,mol/L,584.6730000000005,4.531240000000003,164.38,6.0,4.0
Oc1ccc2N=C3C=CC(=O)C=C3Oc2c1,water,298,-1.0277,mol/L,213.19199999999998,1.9984,63.330000000000005,1.0,4.0
CC1=CNC(=S)NC1=O,water,298,-2.4461,mol/L,142.18300000000002,0.74091,48.65,2.0,2.0
OC(=O)c1ccc(O)c(c1)C(O)=O,water,298,-2.7833,mol/L,182.13099999999997,0.7886,94.83000000000001,3.0,3.0
CC(CC(O)=O)C(O)=O,water,298,0.4143,mol/L,132.11499999999998,0.18180000000000007,74.6,2.0,2.0
OC(CC(O)=O)C(O)=O,water,298,0.4331,mol/L,134.08699999999996,-1.0934000000000001,94.83000000000001,3.0,3.0
OC(=O)C1=CCCCC1,water,298,-1.2558,mol/L,126.155,1.5714000000000001,37.3,1.0,1.0
Oc1ccc(cc1)N=O,water,298,-1.5462,mol/L,123.11099999999999,1.7900999999999998,49.660000000000004,1.0,3.0
CCC(=O)OC(C)C,water,298,-1.2906,mol/L,116.15999999999998,1.3479999999999999,26.3,0.0,2.0
Clc1ccc(I)cc1,water,298,-3.54,mol/L,238.45499999999998,2.944600000000001,0.0,0.0,0.0
CCOC(C)(C)C,water,298,-0.9302,mol/L,102.17699999999999,1.8214000000000001,9.23,0.0,1.0
CC1NC(C)SC(C)S1,water,298,-1.3679,mol/L,163.311,2.094,12.03,1.0,3.0
CC(=O)NC(=O)NC(C)=O,water,298,-0.3137,mol/L,144.12999999999997,-0.6214,75.27000000000001,2.0,3.0
CCCCCCCCCCCCC(O)=O,water,298,-3.8126,mol/L,214.34899999999996,4.382000000000003,37.3,1.0,1.0
CCSCCS[P](=S)(OC)OC,water,298,-3.0905,mol/L,246.35899999999998,2.990000000000001,18.46,0.0,5.0
NC(=O)CF,water,298,1.1132,mol/L,77.05799999999999,-0.5588000000000002,43.09,1.0,1.0
C[C@H](CCC(=O)NCC(O)=O)[C@H]1CC[C@H]2[C@@H]3[C@H](O)C[C@@H]4C[C@H](O)CC[C@]4(C)[C@H]3CC[C@]12C,water,298,-5.1546,mol/L,449.63200000000035,3.594100000000001,106.86000000000001,4.0,4.0
CC(=O)OOC(=O)c1ccccc1,water,298,-2.4502,mol/L,180.15900000000002,1.3215,52.6,0.0,4.0
CCCc1ccc(O)cc1,water,298,-2.0276,mol/L,136.19399999999996,2.3447000000000005,20.23,1.0,1.0
CCC\C=C(/CC)C=O,water,298,-2.3332,mol/L,126.19899999999998,2.3218000000000005,17.07,0.0,1.0
NC1=NC(=O)N=C(N)N1,water,298,-3.2291,mol/L,127.107,-1.6707,110.68,3.0,5.0
CC\C=C\C,water,298,-2.5384,mol/L,70.135,1.9725,0.0,0.0,0.0
C1COCO1,water,298,1.1303,mol/L,74.079,-0.009299999999999975,18.46,0.0,2.0
NCCCCC(O)=O,water,298,0.9313,mol/L,117.14799999999998,0.20000000000000012,63.32,2.0,2.0
N[C@@H](CCO)C(O)=O,water,298,0.924,mol/L,119.11999999999998,-1.2193000000000003,83.55000000000001,3.0,3.0
CCNc1nc(NCC)nc(OC)n1,water,298,-1.7898,mol/L,197.242,0.7437999999999999,71.96000000000001,2.0,6.0
CN(C)[P](=O)(N(C)C)N(C)C,water,298,0.7467,mol/L,179.204,0.7792999999999999,26.790000000000006,0.0,1.0
CCS[S](=O)(=O)CC,water,298,-1.109,mol/L,154.25599999999997,1.0892,34.14,0.0,3.0
CCCC[Sn](Cl)(Cl)CCCC,water,298,-3.5188,mol/L,303.84900000000016,4.506400000000004,0.0,0.0,0.0
ClC(Br)C(Cl)Br,water,298,-2.5644,mol/L,256.752,2.9060000000000006,0.0,0.0,0.0
NC(=O)C(Cl)Cl,water,298,-0.2558,mol/L,127.958,0.2754,43.09,1.0,1.0
CN(N=O)C(N)=O,water,298,-0.8548,mol/L,103.081,-0.3216999999999998,75.75999999999999,1.0,3.0
CCOC(=O)N[C@@H](C=O)[C@@H](O)[C@H](O)[C@H](O)CO,water,298,0.1139,mol/L,251.235,-2.6249999999999987,136.32,5.0,7.0
C=CC#C,water,298,-1.4648,mol/L,52.076,0.8055999999999999,0.0,0.0,0.0
CC(C)CC=C,water,298,-3.2439,mol/L,84.16199999999999,2.2184999999999997,0.0,0.0,0.0
[O-][N+](=O)OCCOCCO[N+]([O-])=O,water,298,-1.7015,mol/L,196.11499999999998,-0.5804,113.97000000000003,0.0,7.0
OC(=O)CCCCCCCCCCC(O)=O,water,298,-3.7603,mol/L,230.30399999999995,3.0566000000000013,74.6,2.0,2.0
Clc1ccccc1Br,water,298,-3.63,mol/L,191.45499999999998,3.1025,0.0,0.0,0.0
CN1C=CC=CC1=O,water,298,0.9621,mol/L,109.12799999999999,0.38529999999999986,22.0,0.0,2.0
O=[I](=O)c1ccccc1,water,298,-1.8416,mol/L,236.008,2.0536,34.14,0.0,2.0
CNc1cccc(C)c1,water,298,-2.05,mol/L,121.18299999999998,2.03672,12.03,1.0,1.0
Cc1cc(C)c(C)c(O)c1,water,298,-2.2522,mol/L,136.194,2.3174600000000005,20.23,1.0,1.0
CCc1cc(C)cc(O)c1,water,298,-1.7696,mol/L,136.194,2.26302,20.23,1.0,1.0
Cc1ccc(c(O)c1)[N+]([O-])=O,water,298,-2.7505,mol/L,153.137,1.6088199999999997,63.37,1.0,3.0
O=C1N=CNc2nccnc12,water,298,-1.4716,mol/L,148.12499999999997,-0.28689999999999993,71.53,1.0,4.0
Nc1ncc2nccnc2n1,water,298,-2.2979,mol/L,147.141,0.0019999999999998352,77.58,1.0,5.0
ClC1=C(Cl)C(Cl)(Cl)C(Cl)(Cl)C1(Cl)Cl,water,298,-6.5362,mol/L,343.679,5.2109,0.0,0.0,0.0
CN1C(=O)NC2=C(NC(=O)N2)C1=O,water,298,-1.5614,mol/L,182.13899999999998,-1.7568000000000001,103.50999999999999,3.0,4.0
NC(=S)Nc1cccc(c1)[N+]([O-])=O,water,298,-1.4499,mol/L,197.21899999999997,1.2503,81.19,2.0,3.0
Cc1nn(c2ccccc2)c(C)c1N=O,water,298,-3.7355,mol/L,201.22899999999996,2.8870400000000016,47.25,0.0,4.0
OC(=O)c1c2ccccc2cc3ccccc13,water,298,-3.4174,mol/L,222.243,3.691200000000001,37.3,1.0,1.0
Cc1oc(N[S](=O)(=O)c2ccc(N)cc2)nc1C,water,298,-2.2025,mol/L,267.31,1.67444,98.22,2.0,5.0
CN(C)[S](=O)(=O)N(SC(F)(Cl)Cl)c1ccc(C)cc1,water,298,-5.5864,mol/L,347.26400000000007,3.314420000000002,40.620000000000005,0.0,3.0
CO[P](=S)(OC)SCN1C(=O)c2ccccc2C1=O,water,298,-4.1141,mol/L,317.32800000000003,2.4906000000000006,55.84,0.0,6.0
CC(C)(C)c1cc(c(O)c(c1)C(C)(C)C)C(C)(C)C,water,298,-3.875,mol/L,262.43699999999995,5.284700000000005,20.23,1.0,1.0
CC(C)O[P](=S)(OC(C)C)SCCN[S](=O)(=O)c1ccccc1,water,298,-4.2014,mol/L,397.52400000000006,3.7726000000000024,64.63,1.0,6.0
C[Sn](C)(Cl)Cl,water,298,-1.0407,mol/L,219.687,2.1658,0.0,0.0,0.0
CO[P](C)(=O)OC,water,298,0.9063,mol/L,124.07599999999998,1.1020999999999999,35.53,0.0,3.0
CCO[P](=O)(OCC)O[P](=O)(OCC)O[P](=O)(OCC)O[P](=O)(OCC)OCC,water,298,0.2956,mol/L,506.2550000000003,5.687600000000006,151.35,0.0,13.0
CCN(N=O)C(N)=O,water,298,-0.9547,mol/L,117.10799999999999,0.06840000000000013,75.75999999999999,1.0,3.0
ClCC(Cl)C=C,water,298,-2.4737,mol/L,124.99799999999999,2.0186,0.0,0.0,0.0
CCCCCCCC(C(O)=O)C(O)=O,water,298,-2.0411,mol/L,202.25,2.1323000000000003,74.6,2.0,2.0
CCCCCCCCC(C(O)=O)C(O)=O,water,298,-2.92,mol/L,216.277,2.5223999999999998,74.6,2.0,2.0
CCCC(N)C(O)=O,water,298,-0.1448,mol/L,117.14799999999998,0.19839999999999997,63.32,2.0,2.0
FCCCl,water,298,-0.5291,mol/L,82.505,1.1947,0.0,0.0,0.0
CCCC(C)=C,water,298,-3.033,mol/L,84.16199999999999,2.3626000000000005,0.0,0.0,0.0
CCOCCC(=O)OCC,water,298,-0.4206,mol/L,146.18599999999998,0.9761000000000001,35.53,0.0,3.0
CC(C)=CC=C(C)C,water,298,-3.537,mol/L,110.19999999999999,2.918800000000002,0.0,0.0,0.0
ClC/C=C/CCl,water,298,-2.3335,mol/L,124.998,2.0202,0.0,0.0,0.0
O=CC1CO1,water,298,1.1423,mol/L,72.063,-0.41590000000000005,29.6,0.0,2.0
COc1ccccc1Cl,water,298,-2.4639,mol/L,142.58499999999998,2.3486000000000002,9.23,0.0,1.0
Cc1cc(C)nc(N)n1,water,298,-0.4884,mol/L,123.15900000000002,0.6756399999999999,51.8,1.0,3.0
C1CC[C@@H]2NCCC[C@H]2C1,water,298,-1.0831,mol/L,139.242,1.9286,12.03,1.0,1.0
CC(O)COc1ccccc1,water,298,-1.141,mol/L,152.19299999999998,1.4462,29.46,1.0,2.0
C1Cc2ccccc2c3ccccc13,water,298,-4.6347,mol/L,180.25,3.452200000000002,0.0,0.0,0.0
O=C(NNC(=O)c1ccccc1)c2ccccc2,water,298,-1.5883,mol/L,240.26200000000003,1.7613999999999999,58.2,2.0,2.0
Clc1ccc(cc1)C(c2ccccc2Cl)C(Cl)(Cl)Cl,water,298,-6.6202,mol/L,354.491,6.495500000000002,0.0,0.0,0.0
CCCO[P](=O)(OCC)OCC,water,298,0.4063,mol/L,196.18299999999996,2.594100000000001,44.760000000000005,0.0,4.0
CCCC[P](=O)(CCCC)CCCC,water,298,-0.5932,mol/L,218.3209999999999,4.749800000000005,17.07,0.0,1.0
CCOC(=O)CCCC(=O)OCC,water,298,-1.3297,mol/L,188.22299999999998,1.2829000000000002,52.60000000000001,0.0,4.0
OCCOC(=O)C=C,water,298,0.9351,mol/L,116.11599999999999,-0.29210000000000025,46.53,1.0,3.0
[Ca++].[O-][S](=O)(=O)C[S]([O-])(=O)=O,water,298,0.1255,mol/L,214.23299999999998,-2.3465,114.39999999999998,0.0,6.0
OCCCC=C,water,298,-0.1793,mol/L,86.134,0.9449,20.23,1.0,1.0
CC(O)CCOCCC(C)O,water,298,0.7899,mol/L,162.229,0.5448,49.69,2.0,3.0
OC(=O)CCCCCCCCCCCCC(O)=O,water,298,-3.1112,mol/L,258.35799999999995,3.836800000000003,74.6,2.0,2.0
CC(C)C1OCCO1,water,298,-0.0651,mol/L,116.16,1.0152999999999999,18.46,0.0,2.0
CSc1ncccn1,water,298,-0.402,mol/L,126.18399999999998,1.1985,25.78,0.0,3.0
CC1CC(OC(C)O1)OC(C)=O,water,298,0.759,mol/L,174.19599999999997,1.047,44.760000000000005,0.0,4.0
CN1C(=O)N(C)c2nc(C)[nH]c2C1=O,water,298,-0.7276,mol/L,194.194,-0.7312800000000006,72.68,1.0,5.0
CN1C(=O)N(C)c2nc(C)n(C)c2C1=O,water,298,-1.4493,mol/L,208.22099999999998,-0.7208800000000009,61.82,0.0,6.0
CCOC(=O)[C@H](Cc1ccc(O)cc1)NC(C)=O,water,298,-1.8586,mol/L,251.282,1.0025,75.63,2.0,4.0
COCCCNc1nc(NC(C)C)nc(SC)n1,water,298,-2.9284,mol/L,271.39,1.8621999999999999,71.96000000000001,2.0,7.0
COCCCNc1nc(NCCCOC)nc(SC)n1,water,298,-3.4792,mol/L,301.416,1.4903000000000002,81.19,2.0,8.0
OC1N=C(c2ccccc2Cl)c3cc(Cl)ccc3NC1=O,water,298,-3.6036,mol/L,321.163,3.101300000000001,61.690000000000005,2.0,3.0
CC(=O)O[C@H]1CC[C@]2(C)[C@H]3CC[C@@]4(C)[C@@H](CCC4=O)[C@@H]3CC=C2C1,water,298,-4.4584,mol/L,330.4680000000001,4.450000000000004,43.370000000000005,0.0,3.0
CC(=O)CCC1C(=O)N(N(C1=O)c2ccccc2)c3ccccc3,water,298,-3.2676,mol/L,322.36400000000003,2.966800000000001,57.690000000000005,0.0,3.0
CCO[P](=O)(OCC)C(Cl)(Cl)Cl,water,298,-1.7541,mol/L,255.465,3.5802000000000023,35.53,0.0,3.0
[K+].[K+].[K+].OC(CC([O-])=O)(CC([O-])=O)C([O-])=O,water,298,0.2962,mol/L,306.39300000000003,-14.240600000000002,140.62,1.0,7.0
CC(=O)OC(OC(C)=O)C=C,water,298,-1.2449,mol/L,158.153,0.6247,52.6,0.0,4.0
CC(=O)NCCNC(C)=O,water,298,0.6755,mol/L,144.17399999999998,-0.7414000000000003,58.2,2.0,2.0
CCCCCCCCC=C,water,298,-5.3911,mol/L,140.26999999999998,3.9230000000000036,0.0,0.0,0.0
CN1CCCC1=O,water,298,1.0038,mol/L,99.133,0.23859999999999992,20.310000000000002,0.0,1.0
OCc1ccc(Br)cc1,water,298,-1.9295,mol/L,187.036,1.9413999999999998,20.23,1.0,1.0
OCc1ccc(Cl)cc1,water,298,-1.7561,mol/L,142.585,1.8322999999999998,20.23,1.0,1.0
[K+].OC(=O)c1ccccc1C([O-])=O,water,298,-0.3895,mol/L,204.22199999999998,-3.2476999999999983,77.43,1.0,3.0
CCOc1nc(OCC)nc(OCC)n1,water,298,-1.4838,mol/L,213.23699999999997,1.0676999999999999,66.36,0.0,6.0
[O-][N+](=O)c1ccc2c3ccccc3c4cccc1c24,water,298,-7.1031,mol/L,247.253,4.395400000000002,43.14,0.0,2.0
CN(C)[C@H]1[C@@H]2[C@@H](O)[C@@H]3C(=C)c4cccc(O)c4C(=C3C(=O)[C@]2(O)C(=O)\C(=C(N)/O)C1=O)O,water,298,-1.768,mol/L,442.4240000000002,-0.5944999999999991,181.61999999999998,6.0,10.0
COCCNC(=O)CS[P](=S)(OC)OC,water,298,-1.1356,mol/L,273.31600000000003,0.9995,56.790000000000006,1.0,6.0
CCSCCS[P](=O)(OC)OC,water,298,-1.8438,mol/L,230.29099999999997,2.8736000000000015,35.53,0.0,5.0
CCOC(C)(C)CC,water,298,-2.4631,mol/L,116.204,2.2115,9.23,0.0,1.0
CC(C(O)=O)C(C)(C)CCC(O)=O,water,298,-1.5265,mol/L,188.22299999999996,1.5981,74.6,2.0,2.0
OCNC(=O)C=C,water,298,0.8101,mol/L,101.10499999999999,-0.7616,49.33,2.0,2.0
CCCC(=O)NCCNC(=O)CCC,water,298,-0.6222,mol/L,200.28199999999995,0.8189999999999995,58.2,2.0,2.0
CCCCCC(=O)CCCCC,water,298,-3.5322,mol/L,170.29599999999996,3.7161000000000026,17.07,0.0,1.0
CCCCO[N+]([O-])=O,water,298,-2.0268,mol/L,119.11999999999999,0.9948,52.37,0.0,3.0
CCC#CCC,water,298,-2.1675,mol/L,82.14599999999999,1.8098,0.0,0.0,0.0
O=NN1CCCC1,water,298,0.9995,mol/L,100.12100000000001,0.7636000000000001,32.67,0.0,2.0
O=NN1CCCCCC1,water,298,-1.0006,mol/L,128.175,1.5438,32.67,0.0,2.0
Oc1c(Cl)ccc(Cl)c1Cl,water,298,-2.6422,mol/L,197.44799999999998,3.3523999999999994,20.23,1.0,1.0
Cc1[nH]c2cncnc2n1,water,298,-0.3829,mol/L,134.142,0.6613199999999999,54.46,1.0,3.0
O=C1CCCCCCCN1,water,298,0.6329,mol/L,141.21400000000003,1.4568,29.1,1.0,1.0
O=[S]1(=O)NCc2ccccc12,water,298,-1.5208,mol/L,169.205,0.4785000000000001,46.17,1.0,2.0
Cc1cnc2cncnc2n1,water,298,0.0571,mol/L,146.153,0.7282199999999998,51.56,0.0,4.0
CN(Cc1ccccc1)N=O,water,298,-1.5224,mol/L,150.18099999999995,1.7997999999999998,32.67,0.0,2.0
BrC1=CC(=O)Oc2ccccc12,water,298,-1.6533,mol/L,225.041,2.5555000000000003,30.21,0.0,2.0
COc1cc(Cl)c(Cl)c(Cl)c1Cl,water,298,-5.2605,mol/L,245.92000000000002,4.308800000000001,9.23,0.0,1.0
Cc1ccc(OCC(O)=O)cc1,water,298,-2.1414,mol/L,166.17600000000002,1.4584199999999998,46.53,1.0,2.0
COc1ccc(\C=C\C(O)=O)cc1,water,298,-1.9573,mol/L,178.18699999999998,1.7930000000000001,46.53,1.0,2.0
COc1c(Cl)c(Cl)c(Cl)c(Cl)c1OC,water,298,-5.2394,mol/L,275.946,4.317400000000001,18.46,0.0,2.0
CCO[P](=O)(OCC)N=C1SCCS1,water,298,-2.5941,mol/L,255.301,3.0035000000000016,47.89,0.0,5.0
O=C1CCCCCCCCCCCN1,water,298,-2.8328,mol/L,197.32199999999997,3.0172000000000008,29.1,1.0,1.0
CCO[P](=O)(OCC)N=C1SCC(C)S1,water,298,-3.6744,mol/L,269.328,3.392000000000002,47.89,0.0,5.0
COC1=NN(CS[P](=S)(OC)OC)C(=O)S1,water,298,-3.2086,mol/L,302.339,1.5213999999999999,62.580000000000005,0.0,9.0
CN(C)C(=O)C(c1ccccc1)c2ccccc2,water,298,-2.964,mol/L,239.318,2.9067000000000016,20.310000000000002,0.0,1.0
CC(=O)C1(C)CCC2C3C=C(C)C4=CC(=O)CCC4(C)C3CCC12C,water,298,-5.2721,mol/L,340.5070000000001,5.279700000000005,34.14,0.0,2.0
C[P](O)(O)=O,water,298,-0.6813,mol/L,96.02199999999999,-0.20610000000000006,57.53,2.0,1.0
CC(C)N(C)C,water,298,1.0597,mol/L,87.166,0.9564,3.24,0.0,1.0
CCOC(=O)CO[N+]([O-])=O,water,298,-1.7111,mol/L,149.102,-0.24219999999999975,78.66999999999999,0.0,5.0
CCOC(=O)CNC(=O)OCC,water,298,-0.2435,mol/L,175.18399999999997,0.2955999999999999,64.63,1.0,4.0
CC(O)COC(=O)C=C,water,298,0.8856,mol/L,130.14299999999997,0.09640000000000004,46.53,1.0,3.0
NC(=O)NCO,water,298,-0.3463,mol/L,90.082,-1.3955000000000002,75.35000000000001,3.0,2.0
CCCCCO[N+]([O-])=O,water,298,-2.568,mol/L,133.147,1.3849,52.37,0.0,3.0
CC1CCC(C)O1,water,298,0.0723,mol/L,100.16099999999999,1.5737999999999999,9.23,0.0,1.0
Cc1cc[n+]([O-])cc1,water,298,0.9621,mol/L,109.12799999999999,0.62842,26.939999999999998,0.0,1.0
CC1=CC=C[NH++]([O-])[CH-]1,water,298,0.9621,mol/L,,,,,
CCNc1nc(N)nc(Cl)n1,water,298,-2.4135,mol/L,173.60700000000003,0.5389999999999999,76.72,2.0,5.0
O=C1CCCCCCCCCN1,water,298,-1.8862,mol/L,169.268,2.237,29.1,1.0,1.0
CNc1nc(NC(C)C)nc(SC)n1,water,298,-2.5656,mol/L,213.30999999999997,1.4555,62.730000000000004,2.0,6.0
CCCCn1cnc2N(C)C(=O)N(C)C(=O)c12,water,298,-1.8069,mol/L,236.27499999999998,0.2338,61.82,0.0,6.0
O=C1OC(=Nc2ccccc12)c3ccccc3,water,298,-4.6084,mol/L,223.231,2.8550000000000004,43.1,0.0,3.0
ClC1C2OC2C3C1C4(Cl)C(=C(Cl)C3(Cl)C4(Cl)Cl)Cl,water,298,-6.2893,mol/L,389.31999999999994,4.452700000000001,12.53,0.0,1.0
CN(C)[P](=O)(N(C)C)n1nc(nc1N)c2ccccc2,water,298,-3.0709,mol/L,294.29900000000004,1.6066999999999994,80.28,1.0,5.0
OC(=O)CNc1c(cc(cc1[N+]([O-])=O)[N+]([O-])=O)[N+]([O-])=O,water,298,-2.3922,mol/L,286.156,0.9077,178.75,2.0,8.0
CCCCCCCCOC(=O)c1cc(O)c(O)c(O)c1,water,298,-3.8945,mol/L,282.336,3.320700000000003,86.99000000000001,3.0,5.0
C[Si](C)(O)O,water,298,1.0354,mol/L,92.16999999999997,-0.32720000000000005,40.46,2.0,2.0
CCCC[Sn++]CCCC.CC([O-])=O.CC([O-])=O,water,298,-4.7672,mol/L,351.0310000000001,0.6397999999999997,80.25999999999999,0.0,4.0
OC(=O)CNC[P](O)(O)=O,water,298,-1.2069,mol/L,169.073,-1.2042,106.86000000000001,4.0,3.0
S=C1NNC(=S)S1,water,298,-0.7552,mol/L,150.25300000000001,1.8632799999999998,31.58,2.0,3.0
Fc1ccccc1Br,water,298,-2.6958,mol/L,175.0,2.5882000000000005,0.0,0.0,0.0
Oc1cnn(c1)c2ccccc2,water,298,-1.9616,mol/L,160.176,1.5778999999999999,38.050000000000004,1.0,3.0
CCCCCCCc1ccccc1,water,298,-5.5959,mol/L,176.30300000000003,4.199500000000003,0.0,0.0,0.0
CCCCCCOC(=O)c1ccc(O)cc1,water,298,-3.949,mol/L,222.28400000000002,3.1293000000000015,46.53,1.0,3.0
CCCCCCCOC(=O)c1ccc(O)cc1,water,298,-4.0725,mol/L,236.311,3.5194000000000027,46.53,1.0,3.0
CN(C)[S](=O)(=O)N(SC(F)(Cl)Cl)c1ccccc1,water,298,-5.4088,mol/L,333.237,3.006000000000001,40.620000000000005,0.0,3.0
CC(C)(C)C(=O)OCC(=O)C1(O)CCC2C3CCC4=CC(=O)C=CC4(C)C3C(O)CC12C,water,298,-4.5835,mol/L,444.56800000000015,3.154600000000001,100.90000000000002,2.0,6.0
CNC(=O)CS[P](=O)(OC)OC,water,298,0.6712,mol/L,213.19499999999996,0.8664999999999998,64.63000000000001,1.0,5.0
CCCCN(CC)C(=O)SCCC,water,298,-3.3082,mol/L,203.35099999999997,3.3716000000000026,20.310000000000002,0.0,2.0
CSCC[C@@H](NC(C)=O)C([O-])=O,water,298,-0.3216,mol/L,190.24399999999997,-1.0058999999999994,69.22999999999999,1.0,4.0
CCCCCC(N)C(O)=O,water,298,-0.94,mol/L,145.202,0.9786000000000001,63.32,2.0,2.0
OCCN(CCO)N=O,water,298,0.8724,mol/L,134.135,-1.0456,73.13,2.0,4.0
CCCCCCCCN(CCCCCCCC)CCCCCCCC,water,298,-6.8496,mol/L,353.6790000000002,8.369900000000007,3.24,0.0,1.0
CC(C)(C)NC(N)=O,water,298,-0.7306,mol/L,116.164,0.4532000000000002,55.12,2.0,1.0
C[Si](C)(O)O[Si](C)(C)O,water,298,-0.1796,mol/L,166.325,0.3911999999999998,49.69,2.0,3.0
COC(=O)CCCC(=O)OC,water,298,-0.4337,mol/L,160.169,0.5026999999999999,52.60000000000001,0.0,4.0
OC(=O)CCSSCCC(O)=O,water,298,-0.1944,mol/L,210.27599999999998,1.3172000000000001,74.6,2.0,4.0
CCCCC#CC,water,298,-2.7695,mol/L,96.17299999999999,2.1999000000000004,0.0,0.0,0.0
CCCCCCCCCCC,water,298,-7.5505,mol/L,156.313,4.537100000000004,0.0,0.0,0.0
Cc1cc(C)c(C)cn1,water,298,-0.7824,mol/L,121.18299999999999,2.00686,12.89,0.0,1.0
CN(C)c1cc[nH+]cc1,water,298,-0.2062,mol/L,123.17899999999996,0.5667,17.380000000000003,0.0,1.0
CCc1cccc(C)n1,water,298,-0.8234,mol/L,121.18299999999998,1.95242,12.89,0.0,1.0
OC(=O)C1(O)CCCCC1,water,298,-0.3328,mol/L,144.17,0.7662,57.53,2.0,2.0
Cc1cc(Cl)cc(C)c1O,water,298,-1.6763,mol/L,156.612,2.6624400000000015,20.23,1.0,1.0
Clc1cnc2ncncc2n1,water,298,-1.1247,mol/L,166.571,1.0732,51.56,0.0,4.0
Clc1cnc2cncnc2n1,water,298,-0.8749,mol/L,166.57099999999997,1.0731999999999997,51.56,0.0,4.0
Oc1ccc(CC=C)cc1O,water,298,-0.7787,mol/L,150.177,1.8262999999999998,40.46,2.0,2.0
Cc1cc(N)n(n1)c2ccccc2,water,298,-0.9376,mol/L,173.21900000000005,1.7629199999999998,43.84,1.0,3.0
Oc1ccc(cc1)C2CCCCC2,water,298,-3.468,mol/L,176.25899999999993,3.4399000000000015,20.23,1.0,1.0
CCSC(=O)N(CC)C1CCCCC1,water,298,-3.4037,mol/L,215.36199999999994,3.5141000000000027,20.310000000000002,0.0,2.0
Cl[Sn](Cl)(c1ccccc1)c2ccccc2,water,298,-3.8373,mol/L,343.82900000000006,2.720600000000001,0.0,0.0,0.0
CCCCN1C(=O)N(C)c2ncn(C)c2C1=O,water,298,-1.6252,mol/L,236.27499999999998,0.23379999999999979,61.82,0.0,6.0
Cc1ccc(cc1)[S](=O)(=O)NC(=O)NN2CCCCCC2,water,298,-3.6778,mol/L,311.40700000000015,1.77392,78.50999999999999,2.0,4.0
COC1[C@H](O)C(C)O[C@H](O[C@H]2CC[C@@]3(C=O)[C@H](CCC4C3CC[C@]5(C)[C@H](CC[C@]45O)C6=CC(=O)OC6)C2)C1O,water,298,-3.1373,mol/L,548.6730000000005,2.2891999999999997,131.75000000000003,3.0,9.0
CCC(C)(C)CO,water,298,-1.1286,mol/L,102.17699999999998,1.4149,20.23,1.0,1.0
CCC(C(CC)C(O)=O)C(O)=O,water,298,-0.8608,mol/L,174.196,1.208,74.6,2.0,2.0
N[C@@H]([C@@H](O)C(O)=O)C(O)=O,water,298,-0.8271,mol/L,149.102,-2.1562000000000006,120.85000000000002,4.0,4.0
CCN(CC)C(=O)N(CC)CC,water,298,-0.6341,mol/L,172.27199999999996,1.79,23.550000000000004,0.0,1.0
CC(C)C[C@H](NC(C)=O)C(O)=O,water,298,-1.3301,mol/L,173.212,0.6218000000000001,66.4,2.0,2.0
OC1=CC(=O)NC=N1,water,298,-1.6516,mol/L,112.088,-0.5245000000000002,65.97999999999999,2.0,3.0
Oc1ccc(O)c(C=O)c1,water,298,-1.0004,mol/L,138.12199999999999,0.9103000000000001,57.53,2.0,3.0