Solute,Solvent,Temperature_K,Solubility,Units,MW,LogP,TPSA,HBD,HBA
Oc1ccccc1[N+]([O-])=O,water,298,-1.802914236,mol/L,139.10999999999999,1.3004000000000002,63.37,1.0,3.0
CC1CC(=CC(C)C1C=O)C,water,298,-1.844063724,mol/L,152.23699999999997,2.4237,17.07,0.0,1.0
CCCCC[C@H]1CCC(=O)O1,water,298,-1.85529404,mol/L,156.225,2.2723000000000004,26.3,0.0,2.0
S=C=S,water,298,-1.54718764,mol/L,76.14500000000001,1.0181,0.0,0.0,2.0
CC(=O)COc1c(C)cccc1C,water,298,-1.918544784,mol/L,178.231,2.2712400000000006,26.3,0.0,2.0
COc1ccc(OC)c(N)c1,water,298,-1.858869039,mol/L,153.18099999999998,1.286,44.480000000000004,1.0,3.0
CC(=C)C(=O)OCC=C,water,298,-1.774568607,mol/L,126.15499999999999,1.2917,26.3,0.0,2.0
Oc1ccccc1[N+]([O-])=O,water,298,-1.821139056,mol/L,139.10999999999999,1.3004000000000002,63.37,1.0,3.0
CC(=O)CC(=O)Nc1ccc(C)cc1C,water,298,-1.990078682,mol/L,205.25699999999998,2.2210400000000003,46.17,1.0,2.0
COc1ccc(C)cc1NC(C)=O,water,298,-1.931164755,mol/L,179.21899999999997,1.9620199999999999,38.33,1.0,2.0
[O--].[O--].[O--].[Gd+3].[Gd+3],water,298,-2.237085122,mol/L,362.497,-0.3564,85.5,0.0,0.0
Nc1cc(Cl)c(Cl)cc1[S](O)(=O)=O,water,298,-2.065900958,mol/L,242.083,1.8223000000000003,80.39,2.0,3.0
CC1=NN(C(=O)C1)c2ccccc2,water,298,-1.925085284,mol/L,174.203,1.7992,32.67,0.0,2.0
CCCCCCC=O,water,298,-1.750124429,mol/L,114.18799999999999,2.1557000000000004,17.07,0.0,1.0
CC1CC(CCC1N)CC2CCC(N)C(C)C2,water,298,-2.074144805,mol/L,238.41899999999998,2.903500000000001,52.04,2.0,2.0
CC(C)(C)OC(=O)C=C,water,298,-1.804593715,mol/L,128.17099999999996,1.5141,26.3,0.0,2.0
COc1ccc(CO)cc1,water,298,-1.839371189,mol/L,138.166,1.1874999999999998,29.46,1.0,2.0
CC(O)C(=O)N(C)C,water,298,1.630235126,mol/L,117.148,-0.5446000000000002,40.54,1.0,2.0
[NH4+].OCC([O-])=O,water,298,1.700915909,mol/L,93.082,-1.8952000000000002,96.86000000000001,2.0,3.0
OC(=O)c1cccc2cccc(c3cccc4cccc(C(O)=O)c34)c12,water,298,-2.233440337,mol/L,342.35000000000014,5.056400000000003,74.6,2.0,2.0
CC(C)COC(=O)C=C,water,298,-1.806759777,mol/L,128.17099999999996,1.3716000000000002,26.3,0.0,2.0
CC(CC=O)c1ccccc1,water,298,-1.86983286,mol/L,148.20499999999998,2.3791,17.07,0.0,1.0
Cc1cc(O)ccc1N,water,298,-1.789422053,mol/L,123.15499999999999,1.2828199999999998,46.25,2.0,2.0
COc1ccc(C=O)cc1,water,298,-1.83298765,mol/L,136.14999999999998,1.5076999999999998,26.3,0.0,2.0
OC1=CC(=O)NC=N1,water,298,-1.748529124,mol/L,112.088,-0.5245000000000002,65.97999999999999,2.0,3.0
CCCCOC(=O)C=C,water,298,-1.806759777,mol/L,128.17099999999996,1.5157,26.3,0.0,2.0
COC(=O)C(=O)c1ccccc1,water,298,-1.914237348,mol/L,164.16,1.0423,43.370000000000005,0.0,3.0
CC(C)(C)OC(=O)C=C,water,298,-1.806759777,mol/L,128.17099999999996,1.5141,26.3,0.0,2.0
[Na+].[Na+].[O-]C(=O)CCCCCCCCC([O-])=O,water,298,-0.092896364,mol/L,246.2139999999999,-6.384999999999998,80.25999999999999,0.0,4.0
COCC(C)OC(C)=O,water,298,0.175568446,mol/L,132.159,0.5844,35.53,0.0,3.0
[Na+].[Na+].Nc1ccc2c([O-])c(N=Nc3ccc(cc3)N=Nc4ccc(cc4)[S]([O-])(=O)=O)c(cc2c1)[S](O)(=O)=O,water,298,-0.460354084,mol/L,571.5040000000002,-1.5147999999999961,210.08999999999997,2.0,11.0
[Cl].COc1cc(CN)ccc1O,water,298,0.018846252,mol/L,188.634,1.5489999999999997,55.480000000000004,2.0,3.0
[Na+].[Na+].CC1=NN(C(=O)C1N=Nc2cc(NC(=O)C(Br)=C)ccc2[S]([O-])(=O)=O)c3cc(Cl)c(cc3Cl)[S]([O-])(=O)=O,water,298,-0.550169975,mol/L,699.2560000000002,-2.468299999999994,200.89,1.0,11.0
[Na+].[Na+].[Na+].[Na+].[Na+].[Na+].[O-][S](=O)(=O)c1ccc(Nc2nc(Cl)nc(NCCNc3ccc4N=C5C(=C6Oc7c(ccc(NCCNc8nc(Cl)nc(Nc9ccc(cc9[S]([O-])(=O)=O)[S]([O-])(=O)=O)n8)c7[S]([O-])(=O)=O)N=C6C(=C5Oc4c3[S]([O-])(=O)=O)Cl)Cl)n2)c(c1)[S]([O-])(=O)=O,water,298,-0.879554019,mol/L,1492.8639999999998,-15.231999999999957,535.9000000000001,6.0,34.0
O=C1CCC(=O)N1,water,298,0.296230626,mol/L,99.089,-0.577,46.17,1.0,2.0
[Na+].CCCCCCCCCCCCO[S]([O-])(=O)=O,water,298,-0.167716596,mol/L,288.385,0.38809999999999967,66.43,0.0,4.0
CC(O)CN.OC(=O)CC(O)(CC(O)=O)C(O)=O,water,298,0.862920127,mol/L,267.234,-1.9225999999999992,178.38,6.0,6.0
Cc1c(O)cccc1O,water,298,0.192772727,mol/L,124.13899999999997,1.4062199999999998,40.46,2.0,2.0
CC(C)(O)C=C,water,298,0.351057238,mol/L,86.134,0.9433,20.23,1.0,1.0
[Li+].[Li+].[O-]C(=O)CCCCC([O-])=O,water,298,0.084622153,mol/L,158.008,-7.945400000000004,80.25999999999999,0.0,4.0
[Li+].[Li+].[O-]C(=O)CCCCCCCCC([O-])=O,water,298,-0.047347893,mol/L,214.11599999999996,-6.384999999999998,80.25999999999999,0.0,4.0
[Li+].[Li+].[O-]C(=O)CCCCCCCC([O-])=O,water,298,-0.017921985,mol/L,200.08899999999997,-6.7751,80.25999999999999,0.0,4.0
Nc1ccc2C(=O)C(=N/Nc3ccc(cc3)N=Nc4ccc(cc4)[S](O)(=O)=O)\C(=Cc2c1)[S](O)(=O)=O.OCCN(CCO)CCO.OCCN(CCO)CCO,water,298,-0.635904616,mol/L,825.9199999999996,0.3546000000000025,328.8,10.0,18.0
CC(C)(O)C=C,water,298,0.343578985,mol/L,86.134,0.9433,20.23,1.0,1.0
Cc1ccc(O)cc1,water,298,-0.743951754,mol/L,108.13999999999999,1.7006199999999998,20.23,1.0,1.0
CC\C=C/CCO,water,298,-0.715141343,mol/L,100.161,1.335,20.23,1.0,1.0
[Na+].[Na+].Oc1c2ccc(Nc3nc(Cl)nc(Cl)n3)cc2cc(c1N=Nc4ccc(cc4)[S](=O)(=O)CCO[S]([O-])(=O)=O)[S]([O-])(=O)=O,water,298,-1.578382357,mol/L,723.4620000000002,-2.641199999999996,253.41999999999996,2.0,16.0
COC(=O)C(C)=C,water,298,-0.721297315,mol/L,100.117,0.7354999999999999,26.3,0.0,2.0
CCOC(=O)CC,water,298,-0.730412488,mol/L,102.133,0.9595,26.3,0.0,2.0
Oc1ccccc1C#N,water,298,-0.797242021,mol/L,119.12299999999999,1.2638800000000001,44.019999999999996,1.0,2.0
CCN(CC)CCCNc1nc(NCCCN(CC)CC)nc(Nc2ccc3c(O)c(N=Nc4ccc5NC(=O)Nc5c4)c(cc3c2)[S](O)(=O)=O)n1.CC(O)C(O)=O,water,298,-0.64043406,mol/L,824.9660000000003,5.045100000000002,286.73999999999995,9.0,16.0
[Sn++].[O-][S]([O-])(=O)=O,water,298,-0.057823856,mol/L,214.774,-1.7187999999999999,80.25999999999999,0.0,4.0
COc1cc(Nc2c(cnc3cc(OCCCN4CCN(C)CC4)c(OC)cc23)C#N)c(Cl)cc1Cl,water,298,-4.879551326,mol/L,530.4560000000004,5.190380000000005,82.88,1.0,8.0
COc1cc(Nc2c(cnc3cc(OCCCN4CCN(C)CC4)c(OC)cc23)C#N)c(Cl)cc1Cl,water,298,-5.247528111,mol/L,530.4560000000004,5.190380000000005,82.88,1.0,8.0
C/C=N/O,water,298,0.495819462,mol/L,59.068000000000005,0.4663,32.59,1.0,2.0
[Li+].[Br-],water,298,1.32370627,mol/L,86.845,-5.992,0.0,0.0,0.0
CCC(OCCCOC)OC(C)=O,water,298,-0.016848465,mol/L,190.23899999999998,1.3387,44.760000000000005,0.0,4.0
NC(N)=N.SC#N,water,298,1.185189716,mol/L,118.16499999999999,-0.76415,99.68,4.0,3.0
[Na+].[Na+].[O-][S](=O)[S]([O-])=O,water,298,0.018292129,mol/L,174.10999999999999,-7.332399999999999,80.25999999999999,0.0,4.0
CC(C)CCCCCCO,water,298,0.099497376,mol/L,144.258,2.5852000000000017,20.23,1.0,1.0
C\C=C/C=O,water,298,0.412016319,mol/L,70.09100000000001,0.7614000000000001,17.07,0.0,1.0
OCC1OC2OC3C(O)C(O)C(OC3CO)OC4C(O)C(O)C(OC4CO)OC5C(O)C(O)C(OC5CO)OC6C(O)C(O)C(OC6CO)OC7C(O)C(O)C(OC7CO)OC8C(O)C(O)C(OC8CO)OC9C(O)C(O)C(OC9CO)OC1C(O)C2O,water,298,-0.857469121,mol/L,1297.1280000000013,-17.406399999999984,633.2000000000004,24.0,40.0
CC1OC1C,water,298,0.397295078,mol/L,72.107,0.7936,12.53,0.0,1.0
[Na+].CCCCCCCCCO[S]([O-])(=O)=O,water,298,-0.13619896,mol/L,246.30399999999997,-0.7821999999999991,66.43,0.0,4.0
[Cl-].CCNc1cc2[o+]c3cc(NCC)c(C)cc3c(c2cc1C)c4ccccc4C(=O)OC,water,298,-1.390984611,mol/L,464.9930000000003,3.8051400000000033,61.66,2.0,4.0
CC(C)CC=O,water,298,-0.658712812,mol/L,86.13399999999999,1.2314,17.07,0.0,1.0
CCOc1ccc(N)cc1,water,298,-0.860835326,mol/L,137.182,1.6675,35.25,1.0,2.0
CCCOC(C)=O,water,298,-0.732704285,mol/L,102.13299999999998,0.9595,26.3,0.0,2.0
Clc1ccccc1C(=O)CC#N,water,298,-2.175139595,mol/L,179.60599999999997,2.4363799999999998,40.86,0.0,2.0
CCCOC(C)=O,water,298,-0.737324482,mol/L,102.13299999999998,0.9595,26.3,0.0,2.0
[Ca++].O[C@H]([C@@H](O)C(O)=O)C(O)=O,water,298,-1.00961536,mol/L,190.164,-2.5033999999999996,115.06,4.0,4.0
CC(=O)CC(=O)OCCOC(=O)C(C)=C,water,298,-1.063682205,mol/L,214.21699999999996,0.6280000000000001,69.67000000000002,0.0,5.0
O=C1OCc2ccccc12,water,298,-0.862721053,mol/L,134.13399999999996,1.357,26.3,0.0,2.0
CC1=NN(C(=N)C1)c2cccc(c2)[S](O)(=O)=O,water,298,-1.138788219,mol/L,253.28300000000002,1.4965700000000002,93.82,2.0,4.0
O=C1CCN(CC1)Cc2ccccc2,water,298,-1.016982858,mol/L,189.25800000000004,1.8515000000000001,20.310000000000002,0.0,2.0
CCCCC=O,water,298,-0.675103228,mol/L,86.13399999999999,1.3755,17.07,0.0,1.0
ON=C1CCCCC1,water,298,-0.798420434,mol/L,113.16000000000001,1.7807,32.59,1.0,2.0
CCCCO[P](O)(=O)OCCCC,water,298,-1.067380867,mol/L,210.20999999999995,2.720200000000001,55.760000000000005,1.0,3.0
COC(=O)\C=C(/C)N,water,298,-0.805923544,mol/L,115.132,0.02189999999999992,52.32,1.0,3.0
F.[Na].[MgH2].O=[Si]=O,water,298,-0.856665127,mol/L,129.40099999999998,-1.7629000000000001,34.14,0.0,2.0
CCCCC=O,water,298,-0.679902111,mol/L,86.13399999999999,1.3755,17.07,0.0,1.0
Nc1ccc(cc1)N(CCO)CCO.O[S](O)(=O)=O,water,298,-0.218413053,mol/L,294.329,-0.5929999999999997,144.32,5.0,6.0
[NH4+].[NH4+].[Zn++].[Zn++].[O-]C([O-])=O.[O-]C([O-])=O.[O-]C([O-])=O,water,298,-0.289761762,mol/L,346.8820000000001,-6.593600000000002,262.57,2.0,9.0
[Na+].[Na+].[SH-],water,298,0.352490659,mol/L,79.05499999999999,-6.262099999999999,0.0,0.0,1.0
[Ni++].CC([O-])=O.CC([O-])=O,water,298,0.00053768,mol/L,176.78099999999998,-2.490099999999999,80.25999999999999,0.0,4.0
OC(C(F)(F)F)C(F)(F)F,water,298,0.020110333,mol/L,168.03599999999997,1.4719,20.23,1.0,1.0
[Na+].[Na+].Nc1c2C(=O)c3ccccc3C(=O)c2c(Nc4ccc(cc4)[S](=O)(=O)CCO[S]([O-])(=O)=O)cc1[S]([O-])(=O)=O,water,298,-0.551445839,mol/L,626.5540000000003,-5.049599999999993,229.95999999999995,2.0,13.0
CC1COC(=O)O1,water,298,0.234059099,mol/L,102.08899999999998,0.5417000000000001,35.53,0.0,3.0
[Na+].[Na+].[Na+].OC(=O)C1=CC(CC=C1O)(Nc2nc(NC3(CC=C(O)C(=C3)C(O)=O)[S]([O-])(=O)=O)nc(NC4(CC=C(O)C(=C4)C(O)=O)[S]([O-])(=O)=O)n2)[S]([O-])(=O)=O,water,298,-0.689646011,mol/L,846.6270000000003,-10.58640000000002,418.94999999999993,9.0,21.0
C1OCOCO1,water,298,0.280909712,mol/L,90.078,-0.07769999999999999,27.69,0.0,3.0
[Ca++].[O-]C=O.[O-]C=O,water,298,0.121211094,mol/L,130.112,-3.6486,80.25999999999999,0.0,4.0
CC(=O)OCCOC(C)=O,water,298,0.068474963,mol/L,146.142,0.11260000000000003,52.6,0.0,4.0
[Na+].[Na+].Nc1c2C(=O)c3ccccc3C(=O)c2c(Nc4ccc(cc4)[S](=O)(=O)CCO[S]([O-])(=O)=O)cc1[S]([O-])(=O)=O,water,298,-0.563962397,mol/L,626.5540000000003,-5.049599999999993,229.95999999999995,2.0,13.0
C1CCCNCC1,water,298,0.234037954,mol/L,99.17699999999999,1.15,12.03,1.0,1.0
[Ca++].[O-]C=O.[O-]C=O,water,298,0.116131569,mol/L,130.112,-3.6486,80.25999999999999,0.0,4.0
[O--].[O--].[O--].[As+3].[As+3],water,298,-1.045896296,mol/L,197.841,-1.118,85.5,0.0,0.0
[Na+].[Na+].[O-][S](=O)(=O)c1ccccc1\C=C/c2ccc(cc2)c3ccc(cc3)\C=C/c4ccccc4[S]([O-])(=O)=O,water,298,-1.504668533,mol/L,562.5760000000002,-0.48939999999999384,114.39999999999998,0.0,6.0
ClC(Cl)(Cl)C(=O)C(Cl)(Cl)Cl,water,298,-1.17979792,mol/L,264.75,3.2958999999999996,17.07,0.0,1.0
OCCc1ccccc1,water,298,-0.843915861,mol/L,122.16699999999996,1.2214,20.23,1.0,1.0
CCCCO[P](O)(=O)OCCCC,water,298,-1.087251192,mol/L,210.20999999999995,2.720200000000001,55.760000000000005,1.0,3.0
COC=C,water,298,-0.531030497,mol/L,58.080000000000005,0.7763,9.23,0.0,1.0
CCOCCOC(=O)C(C)=C,water,298,-0.96747386,mol/L,158.19699999999997,1.1422,35.53,0.0,3.0
Nc1ccccc1O,water,298,-0.807487275,mol/L,109.12799999999999,0.9743999999999999,46.25,2.0,2.0
Nc1cccc(c1)[S](O)(=O)=O,water,298,-1.008081414,mol/L,173.19299999999998,0.5155000000000001,80.39,2.0,3.0
Cc1cccc(N)c1,water,298,-0.799567572,mol/L,107.156,1.5772199999999998,26.02,1.0,1.0
CCOC(=O)C(Cl)C(C)=O,water,298,-0.985949247,mol/L,164.588,0.7459,43.370000000000005,0.0,3.0
[Zr],water,298,0.267777593,mol/L,91.224,-0.0025,0.0,0.0,0.0
[Na+].[Na+].[Na+].CCN1C(=O)C(=N/Nc2cc(Nc3nc(Cl)nc(Nc4ccc(c(Nc5nc(N)nc(Cl)n5)c4)[S]([O-])(=O)=O)n3)c(cc2[S]([O-])(=O)=O)[S]([O-])(=O)=O)\C(=C(C(N)=O)C1=O)C,water,298,-0.759001213,mol/L,969.628,-9.140900000000014,415.9099999999999,6.0,24.0
ClCBr,water,298,2.110835898,mol/L,129.384,1.5776,0.0,0.0,0.0
CC(N)C(O)=O,water,298,0.27156578,mol/L,89.09399999999998,-0.5817999999999999,63.32,2.0,2.0
CCN(CC)CC(C)O,water,298,0.102111364,mol/L,131.219,0.7089999999999999,23.47,1.0,2.0
[Na+].[Na+].Nc1c2C(=O)c3ccccc3C(=O)c2c(Nc4ccc(cc4)[S](=O)(=O)CCO[S]([O-])(=O)=O)cc1[S]([O-])(=O)=O,water,298,-0.576850419,mol/L,626.5540000000003,-5.049599999999993,229.95999999999995,2.0,13.0
CC(=O)CC(C)=O,water,298,0.219600261,mol/L,100.11699999999999,0.5545,34.14,0.0,2.0
[Na+].[Na+].[Na+].[Na+].OO.OO.OO.[O-]C([O-])=O.[O-]C([O-])=O,water,298,-0.276846455,mol/L,314.0180000000001,-16.82580000000002,247.76,6.0,12.0
CC(=O)OCCOC(C)=O,water,298,0.050068802,mol/L,146.142,0.11260000000000003,52.6,0.0,4.0
CC(N)=S,water,298,0.336339534,mol/L,75.136,0.2924,26.02,1.0,1.0
COCC(C)OC(C)=O,water,298,0.083023239,mol/L,132.159,0.5844,35.53,0.0,3.0
[NH4+].[Na+].COc1cc(c(C)cc1NC(=O)C(N=Nc2ccc(cc2)c3sc4c(ccc(C)c4[S]([O-])(=O)=O)n3)C(C)=O)[S]([O-])(=O)=O,water,298,-0.623062478,mol/L,671.7110000000002,1.457140000000001,243.90999999999997,2.0,13.0
CCCCOCCOCCOCOCCOCCOCCCC,water,298,-1.301635776,mol/L,336.4690000000001,2.643700000000001,55.38000000000001,0.0,6.0
CC1OC(=O)C(C)OC1=O,water,298,-0.936025863,mol/L,144.12599999999998,-0.13660000000000005,52.6,0.0,4.0
ClCBr,water,298,-0.889164102,mol/L,129.384,1.5776,0.0,0.0,0.0
NC(=O)c1ccccc1N,water,298,-0.913922317,mol/L,136.15399999999994,0.3677,69.11,2.0,2.0
Cc1ccccc1N,water,298,-0.809908406,mol/L,107.156,1.57722,26.02,1.0,1.0
OC(=O)Cc1ccccc1,water,298,-0.913909558,mol/L,136.14999999999998,1.3137,37.3,1.0,1.0
CCOC(=O)C(Cl)C(C)=O,water,298,-0.998914224,mol/L,164.588,0.7459,43.370000000000005,0.0,3.0
CC\C=C/CCO,water,298,-0.785854804,mol/L,100.161,1.335,20.23,1.0,1.0
Cc1ccccc1N,water,298,-0.817030309,mol/L,107.156,1.57722,26.02,1.0,1.0
Cc1ccccc1N,water,298,-0.820501479,mol/L,107.156,1.57722,26.02,1.0,1.0
CC(C)C(N1CCCNC1=O)C(O)=O,water,298,-1.092111917,mol/L,200.238,0.5108999999999999,69.64000000000001,2.0,2.0
COC1CCC=CO1,water,298,-0.853333105,mol/L,114.14399999999999,1.283,18.46,0.0,2.0
CN1COCN=C1N[N+]([O-])=O,water,298,-1.000360857,mol/L,160.13299999999998,-0.9993000000000001,80.0,1.0,5.0
[H+].[Cl-].Cc1ncc(CO)c(CO)c1O,water,298,-0.111712583,mol/L,205.641,-2.803279999999999,73.58000000000001,3.0,4.0
[K+].[K+].[K+].OC(CC([O-])=O)(CC([O-])=O)C([O-])=O,water,298,0.701241882,mol/L,306.39300000000003,-14.240600000000002,140.62,1.0,7.0
[Na+].[Na+].[Na+].[Na+].OO.OO.OO.[O-]C([O-])=O.[O-]C([O-])=O,water,298,-0.309433822,mol/L,314.0180000000001,-16.82580000000002,247.76,6.0,12.0
CCCCCCCCCc1ccc(OCCOCCO)cc1,water,298,-0.304510239,mol/L,308.462,4.367400000000004,38.69,1.0,3.0
NC(N)=N.SC#N,water,298,1.106488088,mol/L,118.16499999999999,-0.76415,99.68,4.0,3.0
[Na+].CCCCCCCCCCCCO[S]([O-])(=O)=O,water,298,-0.283881408,mol/L,288.385,0.38809999999999967,66.43,0.0,4.0
CC(C)C(N1CCCNC1=O)C(O)=O,water,298,-1.102861926,mol/L,200.238,0.5108999999999999,69.64000000000001,2.0,2.0
CC(=O)OC(C=C)C#N,water,298,-0.898693945,mol/L,125.127,0.62768,50.09,0.0,3.0
CN(CC(O)=O)C(N)=N,water,298,-0.919061534,mol/L,131.135,-1.1037299999999988,90.41,3.0,2.0
CC(C)C(N1CCCNC1=O)C(O)=O,water,298,-1.107281983,mol/L,200.238,0.5108999999999999,69.64000000000001,2.0,2.0
CC1CCCCC1O,water,298,-0.864495868,mol/L,114.18799999999999,1.5574,20.23,1.0,1.0
CC(C)C(N1CCCNC1=O)C(O)=O,water,298,-1.11320872,mol/L,200.238,0.5108999999999999,69.64000000000001,2.0,2.0
CS,water,298,-0.494714636,mol/L,48.11000000000001,0.546,0.0,1.0,1.0
CC(C)C(N1CCCNC1=O)C(O)=O,water,298,-1.114674885,mol/L,200.238,0.5108999999999999,69.64000000000001,2.0,2.0
COC(=O)C(C)=C,water,298,-0.815816397,mol/L,100.117,0.7354999999999999,26.3,0.0,2.0
CC(O)COc1ccccc1,water,298,-1.003417731,mol/L,152.19299999999998,1.4462,29.46,1.0,2.0
CN(CC(O)=O)C(N)=N,water,298,-0.938741673,mol/L,131.135,-1.1037299999999988,90.41,3.0,2.0
Cc1ccccc1N,water,298,-0.853925235,mol/L,107.156,1.57722,26.02,1.0,1.0
CCCCC(CC)COCCCN,water,298,-1.096509119,mol/L,187.32699999999994,2.5682,35.25,1.0,2.0
Nc1cccc(c1)[S](O)(=O)=O,water,298,-1.062439076,mol/L,173.19299999999998,0.5155000000000001,80.39,2.0,3.0
CC(C)CC=O,water,298,-0.759083357,mol/L,86.13399999999999,1.2314,17.07,0.0,1.0
CCOC(=O)C=C,water,298,-0.824416569,mol/L,100.11699999999999,0.7355,26.3,0.0,2.0
OC(=O)CCCCC(O)=O,water,298,-0.988683788,mol/L,146.14200000000002,0.7160000000000002,74.6,2.0,2.0
[Cl-].N[C@@H](Cc1[nH]cnc1)C(O)=O.[H+],water,298,-0.107649886,mol/L,191.618,-3.5193999999999974,92.0,3.0,3.0
NC(CCCN=C(N)N)C(O)=O,water,298,-0.068747154,mol/L,174.204,-1.548099999999999,127.72,4.0,3.0
[Na+].[Na+].[Na+].[Na+].[Na+].[O-][P]([O-])(=O)O[P]([O-])(=O)O[P]([O-])([O-])=O,water,298,-0.395423212,mol/L,367.8620000000001,-18.834600000000002,184.97,0.0,10.0
OC(C(O)C(O)=O)C(O)=O,water,298,0.990977152,mol/L,150.08599999999998,-2.1226,115.06,4.0,4.0
[K+].O[C@H]([C@@H](O)C([O-])=O)C(O)=O,water,298,0.892753102,mol/L,188.17599999999996,-6.453299999999998,117.89000000000001,3.0,5.0
[Na+].[K+].O[C@H]([C@@H](O)C([O-])=O)C([O-])=O,water,298,0.844771408,mol/L,210.15799999999993,-10.783999999999999,120.72,2.0,6.0
[Na+].O[C@H](C[O-])[C@H]1OC(=C(O)C1=O)O,water,298,-0.132544773,mol/L,198.106,-5.0353999999999965,110.05,3.0,6.0
COCCOC(=O)C=C,water,298,0.043941678,mol/L,130.14299999999997,0.3620000000000001,35.53,0.0,3.0
[H+].[Cl-].NNc1ccc(cc1)[S](N)(=O)=O,water,298,-0.19127437,mol/L,223.68499999999997,-3.2638999999999987,98.20999999999998,3.0,4.0
CN(C)C(N)=O,water,298,0.212431567,mol/L,88.11,-0.3732999999999997,46.33,1.0,1.0
[K+].[Au+].[C-]#N.[C-]#N,water,298,-0.304208728,mol/L,288.101,-2.8057599999999994,47.58,0.0,2.0
[Na+].[Na+].[Na+].[Na+].[Na+].[Na+].[Na+].[Na+].[Na+].[Na+].[O-][S](=O)(=O)c1ccc(cc1)N=Nc2ccc(cc2)N=Nc3ccc(\C=C\c4ccc(cc4[S]([O-])(=O)=O)N=Nc5ccc(cc5)N=Nc6ccc(cc6)[S]([O-])(=O)=O)c(c3)[S]([O-])(=O)=O.[O-][S](=O)(=O)c7ccc(cc7)N=Nc8ccc(cc8)N=Nc9ccc(/C=C/c%10ccc(cc%10[S]([O-])(=O)=O)N=Nc%11ccc(\C=C\c%12ccc(cc%12[S]([O-])(=O)=O)N=Nc%13ccc(cc%13)N=Nc%14ccc(cc%14)[S]([O-])(=O)=O)c(c%11)[S]([O-])(=O)=O)c(c9)[S]([O-])(=O)=O,water,298,-1.231545685,mol/L,2420.103999999997,-9.29600000000004,794.4800000000002,0.0,48.0
NC(N)=S,water,298,0.270766744,mol/L,76.124,-0.8113000000000001,52.04,2.0,1.0
Oc1cccc(O)c1,water,298,1.107384462,mol/L,110.11199999999998,1.0977999999999999,40.46,2.0,2.0
OC(C(O)=O)c1ccccc1,water,298,-0.032126941,mol/L,152.149,0.8046,57.53,2.0,2.0
OC(C(O)=O)c1ccccc1,water,298,-0.034716438,mol/L,152.149,0.8046,57.53,2.0,2.0
C=CCOCC1CO1,water,298,0.088674948,mol/L,114.14399999999999,0.5878,21.759999999999998,0.0,2.0
CC1(C)NC(=O)NC1=O,water,298,0.03847382,mol/L,128.131,-0.3956000000000001,58.2,2.0,2.0
[K+].[Au+].[C-]#N.[C-]#N,water,298,-0.31341673,mol/L,288.101,-2.8057599999999994,47.58,0.0,2.0
[Na+].[Na+].[Na+].[Na+].OCCNc1nc(Nc2cccc(c2)[S](O)(=O)=O)nc(Nc3ccc(\C=C\c4ccc(Nc5nc(NCCO)nc(Nc6cccc(c6)[S](O)(=O)=O)n5)cc4[S](O)(=O)=O)c(c3)[S](O)(=O)=O)n1,water,298,-0.887690427,mol/L,1080.9820000000002,-8.987400000000038,407.4599999999999,12.0,22.0
[Na+].[Na+].[Na+].[Na+].OO.OO.OO.[O-]C([O-])=O.[O-]C([O-])=O,water,298,-0.350826508,mol/L,314.0180000000001,-16.82580000000002,247.76,6.0,12.0
[Ca++].CCCCCCCCC([O-])=O.CCCCCCCCC([O-])=O,water,298,-1.376483872,mol/L,354.54400000000015,2.593000000000001,80.25999999999999,0.0,4.0
O[P](O)(=O)c1ccccc1,water,298,-1.026923058,mol/L,158.093,0.4895999999999999,57.53,2.0,1.0
CCOC(=O)\C=C/C(=O)OCC,water,298,-1.06748522,mol/L,172.17999999999995,0.6688,52.60000000000001,0.0,4.0
CC1=CC(=O)CC(C)(C)C1,water,298,-0.979171465,mol/L,138.20999999999998,2.3218000000000005,17.07,0.0,1.0
[Na+].[Na+].CC1=NN(C(=O)C1N=Nc2ccccc2C([O-])=O)c3ccc(cc3)[S]([O-])(=O)=O,water,298,-1.491314993,mol/L,446.35200000000026,-5.1627999999999945,154.72,0.0,9.0
OC(=O)CCCCC(O)=O,water,298,-1.006412554,mol/L,146.14200000000002,0.7160000000000002,74.6,2.0,2.0
OCC1OC2OC3C(O)C(O)C(OC3CO)OC4C(O)C(O)C(OC4CO)OC5C(O)C(O)C(OC5CO)OC6C(O)C(O)C(OC6CO)OC7C(O)C(O)C(OC7CO)OC8C(O)C(O)C(OC8CO)OC1C(O)C2O,water,298,-1.89965485,mol/L,1134.987000000001,-15.23060000000003,554.0500000000003,21.0,35.0
[K+].O[B-](O)(F)F,water,298,-0.930738917,mol/L,121.92,-3.6504000000000003,40.46,2.0,2.0
[Na+].[O-][S](=O)(=O)c1ccc(Nc2nc(Cl)nc(Cl)n2)cc1,water,298,-1.38103092,mol/L,343.127,-1.1699,107.89999999999999,1.0,7.0