Solute,Solvent,Temperature_K,Solubility,Units,MW,LogP,TPSA,HBD,HBA
Oc1ccccc1O,water,298,0.612341891,mol/L,110.11199999999998,1.0977999999999999,40.46,2.0,2.0
CCN(O)CC,water,298,0.70363191,mol/L,89.138,0.7174,23.47,1.0,2.0
NC(N)=N.NC(N)=N.OC(O)=O,water,298,0.397534856,mol/L,180.168,-2.10046,209.30999999999997,8.0,3.0
[Li+].CC([O-])=O,water,298,0.833767293,mol/L,65.985,-4.2398,40.129999999999995,0.0,2.0
CCC(=O)CC,water,298,-0.273361931,mol/L,86.134,1.3755,17.07,0.0,1.0
CCC(=O)CC,water,298,-0.276209773,mol/L,86.134,1.3755,17.07,0.0,1.0
CC(=C)C(=O)OCCOC(=O)CCC(O)=O,water,298,-0.706708916,mol/L,230.21599999999995,0.5136999999999998,89.9,1.0,5.0
[Cl-].CN(C)[C@H]1[C@@H]2C[C@@H]3[C@H](O)c4c(Cl)ccc(O)c4C(=C3C(=O)[C@]2(O)C(=O)\C(=C(N)/O)C1=O)O.[H+],water,298,-1.046901651,mol/L,501.31900000000036,-2.7751999999999963,181.61999999999998,6.0,10.0
CCC(C)C(O)=O,water,298,-0.355953575,mol/L,102.13299999999998,1.1171,37.3,1.0,1.0
[NH4+].[NH4+].[O-]C(=O)C([O-])=O,water,298,-0.440545269,mol/L,124.09599999999999,-2.7614,153.26,2.0,4.0
[Fe+3].[Fe+3].[O-][S]([O-])(=O)=O.[O-][S]([O-])(=O)=O.[O-][S]([O-])(=O)=O,water,298,1.041524079,mol/L,399.87900000000013,-4.018999999999999,240.77999999999997,0.0,12.0
[Cl].[Fe].[O-][S]([O-])(=O)=O,water,298,0.378598818,mol/L,187.361,-0.6509999999999998,80.25999999999999,0.0,4.0
[Cl-].[Cl-].[Cl-].[Fe+3],water,298,0.441216454,mol/L,162.204,-8.990499999999999,0.0,0.0,0.0
[Fe++].[O-][S]([O-])(=O)=O,water,298,0.469697368,mol/L,151.908,-1.3405,80.25999999999999,0.0,4.0
[Zn++].[Br-].[Br-],water,298,1.297742994,mol/L,225.19799999999998,-5.9945,0.0,0.0,0.0
[Na+].[Na+].[O-][S]([O-])(=O)=O,water,298,0.496427872,mol/L,142.04299999999998,-7.329999999999999,80.25999999999999,0.0,4.0
[Na+].[Na+].[Na+].[Na+].[Na+].[Cr+3].Nc1nc(Cl)nc(Nc2cc(cc3cc(c(N=Nc4cc(ccc4[O-])[N+]([O-])=O)c([O-])c23)[S]([O-])(=O)=O)[S]([O-])(=O)=O)n1.Nc5nc(Cl)nc(Nc6cc(cc7cc(c(N=Nc8cc(ccc8[O-])[N+]([O-])=O)c([O-])c67)[S]([O-])(=O)=O)[S]([O-])(=O)=O)n5,water,298,-0.494975175,mol/L,1384.7740000000001,-12.41650000000002,610.2,4.0,34.0
[Cl].[Fe].[O-][S]([O-])(=O)=O,water,298,1.370773481,mol/L,187.361,-0.6509999999999998,80.25999999999999,0.0,4.0
[Cl-].[Cl-].[Cl-].[Fe+3],water,298,1.433391117,mol/L,162.204,-8.990499999999999,0.0,0.0,0.0
[Fe++].[O-][S]([O-])(=O)=O,water,298,1.461872031,mol/L,151.908,-1.3405,80.25999999999999,0.0,4.0
[Na+].Cc1ccc(OCCC[S]([O-])(=O)=O)c(c1)[N+]([O-])=O,water,298,0.170310359,mol/L,297.264,-1.7786799999999974,109.57000000000002,0.0,6.0
[K+].O[B-](O)(F)F,water,298,-0.437714943,mol/L,121.92,-3.6504000000000003,40.46,2.0,2.0
[K+].[O-][S](=O)(=O)C(F)(F)C(F)(F)C(F)(F)C(F)(F)F,water,298,-0.882754467,mol/L,338.18799999999993,-1.0387,57.199999999999996,0.0,3.0
Cl.Cl.CCCCC1=NC2(CCCC2)C(=O)N1.CCCCC3=NC(=O)C4(CCCC4)N3,water,298,-1.019613944,mol/L,461.47800000000035,4.879000000000002,82.92,2.0,4.0
[Na+].[Na+].[Na+].CCN(c1ccccc1)c2nc(Cl)nc(Nc3cc(cc4C=C(\C(=N/Nc5ccccc5[S]([O-])(=O)=O)C(=O)c34)[S]([O-])(=O)=O)[S]([O-])(=O)=O)n2,water,298,-0.266745284,mol/L,802.1120000000004,-6.2027,266.99999999999994,2.0,17.0
[Cl-].[Cl-].[Zn++],water,298,0.501000636,mol/L,136.296,-5.9945,0.0,0.0,0.0
CC1=CN(C2CC(O)C(CO)O2)C(=O)NC1=O,water,298,-0.742062088,mol/L,242.23099999999997,-1.5142799999999992,104.54999999999998,3.0,6.0
[K+].O[B-](O)(F)F,water,298,-0.444600844,mol/L,121.92,-3.6504000000000003,40.46,2.0,2.0
NC(Nc1ccccc1)=Nc2ccccc2,water,298,-0.688546469,mol/L,211.26799999999997,2.7449000000000012,50.41,2.0,1.0
CCCCN[P](N)(N)=S,water,298,-0.589410762,mol/L,167.218,0.518,64.07,3.0,1.0
CCN(CC)c1ccc(cc1)C=CC2=[N+](C)c3ccccc3C2(C)C.CC([O-])=O,water,298,-0.960418782,mol/L,392.5430000000002,4.008400000000003,46.379999999999995,0.0,3.0
CCN(CC)c1ccc(cc1)C=CC2=[N+](C)c3ccccc3C2(C)C.O[P](O)([O-])=O,water,298,-1.000489568,mol/L,430.4850000000001,3.691600000000003,86.84,2.0,3.0
[Na].OC(=O)c1cc2ccccc2c(Cc3c(O)c(cc4ccccc34)C(O)=O)c1O,water,298,-0.980758883,mol/L,411.3650000000001,4.010600000000002,115.06000000000002,4.0,4.0
NC(Cc1[nH]cnc1)C(O)=O,water,298,-0.557302918,mol/L,155.15699999999998,-0.6359000000000006,92.0,3.0,3.0
N.N.O[C@H]([C@@H](O)C(O)=O)C(O)=O,water,298,0.366276763,mol/L,184.14799999999997,-1.7986,185.05999999999997,6.0,6.0
Cc1ncc(CN)c(N)n1,water,298,0.490306563,mol/L,138.174,-0.17408000000000012,77.82,2.0,4.0
[Mn++].[O-][N+]([O-])=O.[O-][N+]([O-])=O,water,298,1.377095201,mol/L,178.946,-0.4807000000000001,132.4,0.0,6.0
CN(C)CCCNCCCN(C)C,water,298,0.355850804,mol/L,187.331,0.47940000000000116,18.509999999999998,1.0,3.0
[H+].[H+].[Cl-].[Cl-].Nc1ccc(OCCO)c(N)c1,water,298,0.246159297,mol/L,241.11799999999997,-5.5448999999999975,81.5,3.0,4.0
[Na+].[Na+].[Na+].OC(CC([O-])=O)(CC([O-])=O)C([O-])=O,water,298,0.216653091,mol/L,258.06899999999996,-14.240600000000002,140.62,1.0,7.0
OC(=O)CCl,water,298,1.648864075,mol/L,94.49700000000001,0.3098,37.3,1.0,1.0
O.O.O.O.O.O.O.O.O.[Al+3].[O-][N+]([O-])=O.[O-][N+]([O-])=O.[O-][N](=O)=O,water,298,-0.940813194,mol/L,375.12900000000013,-8.520399999999993,482.09999999999997,0.0,9.0
[F-].[Na+],water,298,-0.002187262,mol/L,41.988,-5.992,0.0,0.0,0.0
CCNC(=S)NCC,water,298,-0.498087276,mol/L,132.232,0.49030000000000007,24.06,2.0,1.0
CC(N)c1ccccc1,water,298,-0.460192409,mol/L,121.18299999999995,1.7063000000000001,26.02,1.0,1.0
C[C@H](N)c1ccccc1,water,298,-0.460192409,mol/L,121.18299999999995,1.7063000000000001,26.02,1.0,1.0
COC(C)(C)C,water,298,-0.321973026,mol/L,88.14999999999999,1.4313,9.23,0.0,1.0
OC(=O)CCC(N(CC(O)=O)CC(O)=O)C(O)=O,water,298,0.201924838,mol/L,263.202,-1.2243999999999988,152.44,4.0,5.0
O=C1OC(=O)C=C1,water,298,0.62969768,mol/L,98.05699999999997,-0.3740000000000001,43.370000000000005,0.0,3.0
[Na+].COC(=O)c1ccc([O-])cc1,water,298,0.380300188,mol/L,174.13099999999997,-2.4491999999999985,49.36,0.0,3.0
[Na+].NC(CCC(O)=O)C([O-])=O,water,298,0.391961629,mol/L,169.112,-5.067599999999998,103.44999999999999,2.0,4.0
[Na+].[N-]=[N+]=[N-],water,298,0.804013495,mol/L,65.011,-2.1299,58.7,0.0,0.0
[Na+].[Na+].[Mn++].[O-]C(=O)CN(CCN(CC([O-])=O)CC([O-])=O)CC([O-])=O,water,298,0.024802502,mol/L,389.1300000000002,-13.404500000000008,167.0,0.0,10.0
[Na+].CNCC[S]([O-])(=O)=O,water,298,0.405531988,mol/L,161.158,-4.244999999999997,69.22999999999999,1.0,4.0
[NH4+].[NH4+].[O-]C(=O)C([O-])=O,water,298,-0.472581501,mol/L,124.09599999999999,-2.7614,153.26,2.0,4.0
[F-].[Na+],water,298,-0.006124847,mol/L,41.988,-5.992,0.0,0.0,0.0
N[C@@H](CCC(N)=O)C(O)=O,water,298,-0.548311419,mol/L,146.14600000000002,-1.3361999999999998,106.41,3.0,3.0
CC[C@H](C)[C@H](N)C(O)=O,water,298,-0.502953857,mol/L,131.17499999999998,0.44439999999999996,63.32,2.0,2.0
[H+].[Cl-].OCCNc1ccc2OCOc2c1,water,298,0.272897501,mol/L,217.652,-2.0639999999999983,50.72,2.0,4.0
[Li+].CC([O-])=O,water,298,0.791214942,mol/L,65.985,-4.2398,40.129999999999995,0.0,2.0
OC(=O)\C=C\C(O)=O,water,298,0.544866942,mol/L,116.07199999999999,-0.28819999999999985,74.6,2.0,2.0
O=C1OC(=O)C=C1,water,298,0.618115807,mol/L,98.05699999999997,-0.3740000000000001,43.370000000000005,0.0,3.0
[Li+].[Li+].[O-]C(=O)CCCCC([O-])=O,water,298,0.409846958,mol/L,158.008,-7.945400000000004,80.25999999999999,0.0,4.0
[Li+].[Li+].[O-]C(=O)CCCCCCCCC([O-])=O,water,298,0.277876912,mol/L,214.11599999999996,-6.384999999999998,80.25999999999999,0.0,4.0
[Li+].[Li+].[O-]C(=O)CCCCCCCC([O-])=O,water,298,0.30730282,mol/L,200.08899999999997,-6.7751,80.25999999999999,0.0,4.0
[Na+].[Na+].[Na+].[Na+].OCCN(CCO)c1nc(Nc2ccc(cc2)[S]([O-])(=O)=O)nc(Nc3ccc(\C=C\c4ccc(Nc5nc(Nc6ccc(cc6)[S]([O-])(=O)=O)nc(n5)N(CCO)CCO)c(c4)[S]([O-])(=O)=O)cc3[S]([O-])(=O)=O)n1,water,298,-0.457820767,mol/L,1165.0559999999998,-11.58420000000004,441.65999999999997,8.0,28.0
[Na+].[Na+].[O-]C([O-])=O,water,298,0.581124668,mol/L,105.98799999999999,-8.439,63.19,0.0,3.0
O=C1OC(=O)C=C1,water,298,0.612747451,mol/L,98.05699999999997,-0.3740000000000001,43.370000000000005,0.0,3.0
[Na+].[Na+].OCCNc1nc(NCCO)nc(Nc2ccc3C(=O)C(=N/Nc4ccc(cc4)N=Nc5ccc(cc5)[S]([O-])(=O)=O)\C(=Cc3c2)[S]([O-])(=O)=O)n1,water,298,-0.28369802,mol/L,768.7020000000003,-3.6983999999999897,295.79999999999995,6.0,19.0
[Na+].OC[C@H](O)C1OC(=O)[C-](O)C1=O,water,298,0.305162362,mol/L,198.10599999999997,-5.257409999999997,104.06,3.0,6.0
C[C@H]1CO1,water,298,0.838033384,mol/L,58.08,0.4051,12.53,0.0,1.0
[Na+].[Na+].Cc1ccc2nc(sc2c1[S]([O-])(=O)=O)c3ccc(cc3)N=Nc4ccc(cc4)c5sc6c(ccc(C)c6[S]([O-])(=O)=O)n5,water,298,-1.222309624,mol/L,680.7220000000002,1.088440000000003,164.89999999999998,0.0,12.0
[Co++].CCCCC(CC)C([O-])=O.CCCCC(CC)C([O-])=O,water,298,-0.932948126,mol/L,345.34500000000014,1.9028999999999998,80.25999999999999,0.0,4.0
CCOCCCC(C)OCCOCC(C)CO,water,298,-0.790860844,mol/L,248.36299999999994,1.8531999999999997,47.92,1.0,4.0
CC(N)c1ccccc1,water,298,-0.481381708,mol/L,121.18299999999995,1.7063000000000001,26.02,1.0,1.0
[K+].[K+].[Zn++].[O-]C(=O)CN(CCN(CC([O-])=O)CC([O-])=O)CC([O-])=O,water,298,0.237458201,mol/L,431.7980000000003,-13.404500000000008,167.0,0.0,10.0
[F-].[Na+],water,298,-0.00210652,mol/L,41.988,-5.992,0.0,0.0,0.0
CCCCNC(=O)OCCOC(=O)C=C,water,298,-1.634840597,mol/L,215.24899999999994,1.2418999999999998,64.63,1.0,4.0
Oc1ccccc1C=O,water,298,-1.396601384,mol/L,122.12299999999998,1.2047,37.3,1.0,2.0
[H+].[Cl-].NNc1ccc(Cl)cc1,water,298,-1.563665466,mol/L,179.04999999999998,-1.2578999999999994,38.05,2.0,2.0
OC(=O)c1ccc(O)cc1,water,298,-1.452733897,mol/L,138.12199999999999,1.0903999999999998,57.53,2.0,2.0
CCCCCCCCN.CCCCO[P](S)(=O)OCCCC,water,298,-1.864233876,mol/L,355.52500000000015,5.9633000000000065,61.55,2.0,4.0
Nc1nc(N)nc(N)n1,water,298,-1.415052554,mol/L,126.12300000000002,-1.3818000000000001,116.72999999999999,3.0,6.0
Cc1cc(C)cc(N)c1,water,298,-1.402200462,mol/L,121.18299999999999,1.8856399999999998,26.02,1.0,1.0
[Na+].[Co+3].N[S](=O)(=O)c1ccc([O-])c(c1)N=Nc2c([O-])ccc3ccccc23.N[S](=O)(=O)c4ccc([O-])c(c4)N=Nc5c([O-])ccc6ccccc56,water,298,-2.202203848,mol/L,764.619,1.1011000000000033,262.0,2.0,12.0
CC1(C)CC(=O)CC(C)(C1)C#N,water,298,-1.54049772,mol/L,165.236,2.2954800000000004,40.86,0.0,2.0
[H+].[Cl-].OC1(CCNCC1)c2ccc(Cl)cc2,water,298,-1.720777531,mol/L,248.15300000000002,-0.9724999999999993,32.26,2.0,2.0
CC(C)C1=NN(C(=O)NC(C)(C)C)C(=O)N1N,water,298,-1.708606324,mol/L,241.295,0.23820000000000074,94.94,2.0,6.0
Cc1ccccc1Cl,water,298,-1.430287819,mol/L,126.586,2.6484200000000007,0.0,0.0,0.0
[NH3+][C@@H](C([O-])=O)c1ccccc1,water,298,-1.508278406,mol/L,151.165,-1.2804999999999995,67.77000000000001,1.0,2.0
CCOC(=O)C(C)=C,water,298,-1.386280245,mol/L,114.14399999999999,1.1256000000000002,26.3,0.0,2.0
CCCCCCCCN.CCCCO[P](S)(=O)OCCCC,water,298,-1.879697302,mol/L,355.52500000000015,5.9633000000000065,61.55,2.0,4.0
Nc1cccc(c1)C(F)(F)F,water,298,-1.536919773,mol/L,161.12599999999998,2.2876000000000003,26.02,1.0,1.0
CC(C)C1=NN(C(=O)NC(C)(C)C)C(=O)N1N,water,298,-1.713231442,mol/L,241.295,0.23820000000000074,94.94,2.0,6.0
CC(C)C1=NN(C(=O)NC(C)(C)C)C(=O)N1N,water,298,-1.716967332,mol/L,241.295,0.23820000000000074,94.94,2.0,6.0
CC(C)C1=NN(C(=O)NC(C)(C)C)C(=O)N1N,water,298,-1.718847397,mol/L,241.295,0.23820000000000074,94.94,2.0,6.0
CC(=O)CCc1ccc(O)cc1,water,298,-1.552040941,mol/L,164.204,1.9138,37.3,1.0,2.0
ClC(Cl)(Cl)[2H],water,298,-1.417811305,mol/L,120.384101778,1.9864,0.0,0.0,0.0
Nc1cc(Cl)nc(C(O)=O)c1Cl,water,298,0.010331948,mol/L,207.01600000000002,1.6688,76.21000000000001,2.0,3.0
Nc1cc(Cl)nc(C(O)=O)c1Cl,water,298,-0.004250052,mol/L,207.01600000000002,1.6688,76.21000000000001,2.0,3.0
CC(=O)Oc1ccccc1C(O)=O,water,298,-1.592898131,mol/L,180.15899999999996,1.3101,63.6,1.0,3.0
CC(C)C1=NN(C(=O)NC(C)(C)C)C(=O)N1N,water,298,-1.720735637,mol/L,241.295,0.23820000000000074,94.94,2.0,6.0
Nc1cc(Cl)nc(C(O)=O)c1Cl,water,298,-0.008507875,mol/L,207.01600000000002,1.6688,76.21000000000001,2.0,3.0
OCCNc1ccc(cc1[N+]([O-])=O)N(CCO)CCO,water,298,-1.795385572,mol/L,285.29999999999995,-0.21000000000000008,119.10000000000001,4.0,7.0
[F-].[Al+3].[K+],water,298,-1.269901072,mol/L,85.078,-6.3728,0.0,0.0,0.0
CC(C)C1=NN(C(=O)NC(C)(C)C)C(=O)N1N,water,298,-1.72358348,mol/L,241.295,0.23820000000000074,94.94,2.0,6.0
[Al+3].CCCC[O-].CCCC[O-].CCCC[O-],water,298,-1.737335476,mol/L,246.3269999999999,0.059600000000002096,69.17999999999999,0.0,3.0
FC(F)=C(F)Cl,water,298,-1.412997833,mol/L,116.46900000000001,2.2603,0.0,0.0,0.0
Oc1ccc(Cl)cc1Cl,water,298,-1.558983084,mol/L,163.003,2.699,20.23,1.0,1.0
Nc1ccccc1C(O)=O,water,298,-1.483945298,mol/L,137.13799999999998,0.9670000000000001,63.32,2.0,2.0
NC(CC(O)=O)C(O)=O,water,298,-1.47097533,mol/L,133.10299999999998,-1.127,100.62,3.0,3.0
Cc1c(N)cccc1Cl,water,298,-1.497853807,mol/L,141.60099999999997,2.23062,26.02,1.0,1.0
CC(C)C1=NN(C(=O)NC(C)(C)C)C(=O)N1N,water,298,-1.730301982,mol/L,241.295,0.23820000000000074,94.94,2.0,6.0
[Na+].[Na+].[Na+].[Na+].Nc1ccc(cc1[S]([O-])(=O)=O)N=Nc2ccc(N=Nc3ccc(N\N=C/4C(=O)c5ccc(NC(=O)c6ccccc6)cc5C=C4[S]([O-])(=O)=O)c7ccc(cc37)[S]([O-])(=O)=O)c8ccc(cc28)[S]([O-])(=O)=O,water,298,-2.393595358,mol/L,1098.9510000000002,-5.062900000000014,374.82,3.0,21.0
O=C1NSc2ccccc12,water,298,-1.534199066,mol/L,151.18999999999997,1.5896,32.86,1.0,2.0
NC(N)=N[N+]([O-])=O,water,298,-1.373868705,mol/L,104.06899999999999,-1.5484999999999998,107.54000000000002,2.0,2.0
COC(=O)C=C(C)C,water,298,-1.414000411,mol/L,114.14399999999999,1.1256,26.3,0.0,2.0
OCC#CCO.ClCC1CO1,water,298,-1.608465251,mol/L,178.61499999999998,-0.4016000000000002,52.99,2.0,3.0
[Na+].[Na+].[Na+].[Na+].[Na+].COc1cc(N=Nc2cc(cc3cc(cc(O)c23)[S]([O-])(=O)=O)[S]([O-])(=O)=O)c(C)cc1N=Nc4c(O)c5c(Nc6nc(Nc7ccccc7)nc(Nc8ccc(cc8)N=Nc9ccc(O)c(c9)C([O-])=O)n6)cc(cc5cc4[S]([O-])(=O)=O)[S]([O-])(=O)=O,water,298,-2.483387966,mol/L,1333.0979999999997,-6.9112800000000245,487.77,6.0,30.0
COC(=O)c1ccccc1C(=O)OC,water,298,-1.65474946,mol/L,194.18599999999995,1.2597999999999998,52.60000000000001,0.0,4.0
CC1=NN(C(=O)C1)c2cccc(c2)[S](O)(=O)=O,water,298,-1.771821543,mol/L,254.267,1.0459,87.03999999999999,1.0,4.0
CC(=O)OCC=C(C)C,water,298,-1.474321317,mol/L,128.171,1.5157,26.3,0.0,2.0
CCCCCCCC(=O)N(C)C,water,298,-1.600248341,mol/L,171.284,2.4351000000000003,20.310000000000002,0.0,1.0
CCCCN[P](N)(N)=S,water,298,-1.589814569,mol/L,167.218,0.518,64.07,3.0,1.0
CCCCCC(C)=O,water,298,-1.433338371,mol/L,114.18799999999999,2.1557000000000004,17.07,0.0,1.0
CCCC(C)C=O,water,298,-1.377449362,mol/L,100.16099999999999,1.6215,17.07,0.0,1.0
CC(C)(C)c1ccc(O)c(O)c1,water,298,-1.597433988,mol/L,166.21999999999997,2.3953000000000015,40.46,2.0,2.0
O=C1OC(=O)C2CCCCC12,water,298,-1.564736497,mol/L,154.165,0.8761999999999999,43.370000000000005,0.0,3.0
Nc1ncnc2n(cnc12)C3OC(CO)C(O)C3O,water,298,-1.810959537,mol/L,267.245,-1.9799999999999998,139.54000000000002,4.0,9.0
CCC(CO)(COCC=C)COCC=C,water,298,-1.718248447,mol/L,214.30499999999995,1.7803,38.69,1.0,3.0
[O-][N+](=O)OCCOCCO[N+]([O-])=O,water,298,-1.679726956,mol/L,196.11499999999998,-0.5804,113.97000000000003,0.0,7.0
CCCC(C)C=O,water,298,-1.392172618,mol/L,100.16099999999999,1.6215,17.07,0.0,1.0
CCCCNCCCC,water,298,-1.503965448,mol/L,129.24699999999999,2.1761999999999997,12.03,1.0,1.0
[Cl-].[Cl-].[Pd++],water,298,-1.643467372,mol/L,177.32600000000002,-5.9945,0.0,0.0,0.0
CC(COCC(C)OC(=O)C=C)OCC(C)OC(=O)C=C,water,298,-1.875569091,mol/L,300.35100000000006,1.6434999999999997,71.06,0.0,6.0
C[C@@H]1CO1,water,298,0.838033384,mol/L,58.08,0.4051,12.53,0.0,1.0
COC(=O)CCCCC(=O)OC,water,298,-1.638978187,mol/L,174.196,0.8927999999999998,52.60000000000001,0.0,4.0
CCCCN(CCO)CCCC,water,298,-1.636738571,mol/L,173.29999999999995,1.8809,23.47,1.0,2.0
CC1CC(CCC1N)CC2CCC(N)C(C)C2,water,298,-1.775280871,mol/L,238.41899999999998,2.903500000000001,52.04,2.0,2.0
c1ccc2cnccc2c1,water,298,-1.50907477,mol/L,129.16199999999998,2.2348,12.89,0.0,1.0
[Na+].CN(C)C(=S)SCCC[S]([O-])(=O)=O,water,298,0.1779036,mol/L,265.35699999999997,-2.4945999999999975,60.44,0.0,5.0
[NH4+].[Cl-],water,298,0.86830826,mol/L,53.492000000000004,-2.6198,36.5,1.0,0.0
[K+].[K+].[O-]C(=O)C([O-])=O,water,298,0.372618466,mol/L,166.21399999999997,-9.505799999999999,80.25999999999999,0.0,4.0
[Na+].[Na+].[Na+].[Na+].COc1ccc(cc1N\N=C/2C(=O)c3c(N)c(N=Nc4ccc(cc4)[S](=O)(=O)CCO[S]([O-])(=O)=O)c(cc3C=C2[S]([O-])(=O)=O)[S]([O-])(=O)=O)[S](=O)(=O)CCO[S]([O-])(=O)=O,water,298,-0.416104482,mol/L,1021.8580000000004,-12.33560000000002,416.96999999999997,2.0,25.0
CN=C(NCC1CCOC1)N[N+]([O-])=O,water,298,-0.705600914,mol/L,202.214,-0.6203999999999994,88.78999999999999,2.0,4.0
Cc1ccc(cc1N)C(N)=O,water,298,-0.57673192,mol/L,150.18099999999998,0.6761200000000003,69.11,2.0,2.0
[F-].[Na+],water,298,-0.002543,mol/L,41.988,-5.992,0.0,0.0,0.0
NO,water,298,0.074931087,mol/L,33.03,-0.6657000000000002,46.25,2.0,2.0
OCc1scnc1,water,298,0.525735536,mol/L,115.15699999999998,0.6354,33.120000000000005,1.0,3.0
[Na+].NC(CCC(O)=O)C([O-])=O,water,298,0.357286304,mol/L,169.112,-5.067599999999998,103.44999999999999,2.0,4.0
OC(=O)CC(O)(CC(O)=O)C(O)=O,water,298,0.299619414,mol/L,192.123,-1.2485,132.13000000000002,4.0,4.0
CC(=O)N1C[C@@H](O)C[C@H]1C([O-])=O,water,298,0.344992722,mol/L,172.15999999999997,-2.281999999999999,80.67000000000002,1.0,4.0
[Na+].[Na+].[Na+].[Na+].[O-][S](=O)(=O)OCC[S](=O)(=O)c1ccc2c(ccc(N\N=C/3C(=O)c4c(NC(=O)c5ccccc5)cc(cc4C=C3[S]([O-])(=O)=O)[S]([O-])(=O)=O)c2[S]([O-])(=O)=O)c1,water,298,-0.389314941,mol/L,933.7700000000003,-11.282700000000023,342.72999999999996,2.0,19.0
[Na].[Na].[Na].[Na].CNc1ccc(/C=C/c2ccc(Nc3nc(Nc4ccc(cc4)[S]([O-])(=O)=O)nc(n3)N5CCOCC5)cc2[S]([O-])(=O)=O)c(c1)[S]([O-])(=O)=O.Cc6nc(Nc7ccc(cc7)[S]([O-])(=O)=O)nc(n6)N8CCOCC8,water,298,-0.484335811,mol/L,1159.0960000000002,1.260920000000003,379.19999999999993,4.0,26.0
[I-].C[S+](C)(C)=O,water,298,-0.756884432,mol/L,220.075,-2.6206999999999985,17.07,0.0,1.0
Cc1ccc(N)cc1N,water,298,-0.507184532,mol/L,122.17100000000002,1.1594200000000001,52.04,2.0,2.0
Cc1cc(N)ccc1N,water,298,-0.507184532,mol/L,122.171,1.1594200000000001,52.04,2.0,2.0
O.O.O.O.O.O.O.[Co++].[O-][S]([O-])(=O)=O,water,298,0.12713323,mol/L,281.10100000000006,-7.113399999999995,300.76,0.0,4.0
[Na+].CN(C)C([S-])=S,water,298,0.416892192,mol/L,143.212,-2.6161999999999983,3.24,0.0,2.0
OCC#CCO,water,298,1.637918894,mol/L,86.08999999999999,-1.0256,40.46,2.0,2.0
CCN(CC)c1ccc(cc1)[C+](c2ccc(cc2)N(CC)CC)c3ccc(cc3)N(CC)CC.CC([O-])=O,water,298,-0.139560898,mol/L,515.7420000000004,6.000590000000006,49.85,0.0,5.0
[NH4+].[Cl-],water,298,0.842254104,mol/L,53.492000000000004,-2.6198,36.5,1.0,0.0
[Cl-].[K+],water,298,0.698089467,mol/L,74.551,-5.992,0.0,0.0,0.0
[Cl-].Nc1cn(n[o+]1)N2CCOCC2,water,298,0.147198317,mol/L,206.63299999999992,-3.688399999999998,67.61,1.0,5.0
CCCCC(O)=O,water,298,-0.435134821,mol/L,102.13299999999998,1.2612,37.3,1.0,1.0
OC(=O)c1ccc2C(=O)OC(=O)c2c1,water,298,-0.710714539,mol/L,192.12599999999998,0.6954,80.66999999999999,1.0,4.0
COc1ccc(CO)cc1,water,298,-0.569858245,mol/L,138.166,1.1874999999999998,29.46,1.0,2.0
CCCCOC(=O)\C=C/C(O)=O,water,298,-0.667780979,mol/L,172.17999999999998,0.9704999999999999,63.6,1.0,3.0
CCOCCOC(C)(C)C,water,298,-0.596834756,mol/L,146.23,1.838,18.46,0.0,2.0
Cc1ccc(NCCO)cc1O,water,298,-0.655055328,mol/L,167.20800000000003,1.1048199999999997,52.489999999999995,3.0,3.0
[Na+].[Na+].COc1cc(c(C)cc1N=NC2C(=NN(C2=O)c3ccc(cc3)[S]([O-])(=O)=O)C)[S](=O)(=O)CCO[S]([O-])(=O)=O,water,298,-0.239003926,mol/L,634.5780000000002,-4.95877999999999,224.38999999999996,0.0,14.0
Nc1ccccc1,water,298,-0.412782439,mol/L,93.12899999999999,1.2688000000000001,26.02,1.0,1.0
OC1CNC(C1)C(O)=O,water,298,0.439922115,mol/L,131.13099999999997,-1.2061999999999997,69.56,3.0,3.0
[Co++].CC([O-])=O.CC([O-])=O,water,298,0.308277711,mol/L,177.021,-2.490099999999999,80.25999999999999,0.0,4.0
[Na+].Cc1ccc(cc1N)C(=O)Nc2ccc(cc2)[S]([O-])(=O)=O,water,298,-0.949277587,mol/L,328.32500000000005,-1.2623799999999985,112.32,2.0,5.0
CCOC(=O)C(C)C=C,water,298,-1.576310856,mol/L,128.17099999999996,1.3716000000000002,26.3,0.0,2.0
CNC(=S)NN,water,298,-0.465572855,mol/L,105.16600000000001,-1.0459999999999996,50.08,3.0,2.0
OC1CCCCC1,water,298,-0.444396151,mol/L,100.161,1.3114,20.23,1.0,1.0
NC(CO)C(O)=O,water,298,0.534366648,mol/L,105.09299999999999,-1.6094000000000002,83.55000000000001,3.0,3.0
[Cl-].[K+],water,298,0.67777488,mol/L,74.551,-5.992,0.0,0.0,0.0