Solute,Solvent,Temperature_K,Solubility,Units
[Zn++].[O-]C=O.[O-]C=O,water,298,-0.4755,mol/L
BrC(Br)(Br)Br,water,298,-3.1404,mol/L
C[S](F)(=O)=O,water,298,-0.5145,mol/L
CC1(C)CO1,water,298,-0.0946,mol/L
CC(C)(O)CCl,water,298,0.1602,mol/L
[O-][N+](=O)C(Br)([N+]([O-])=O)[N+]([O-])=O,water,298,-1.7705,mol/L
CN1CC[C@]23[C@H]4Oc5c(OC(C)=O)ccc(C[C@@H]1[C@@H]2C=C[C@@H]4OC(C)=O)c35,water,298,-2.7894,mol/L
CCC(C)(C)CC,water,298,-4.2286,mol/L
CCO[P](=S)(OCC)SCS[P](=S)(OCC)OCC,water,298,-5.2838,mol/L
CC(C)C=C,water,298,-2.732,mol/L
CCC(C)=C,water,298,-2.7307,mol/L
CC(=C)CCl,water,298,-1.8108,mol/L
C\C(Cl)=C\Cl,water,298,-1.6138,mol/L
CC(O)C(C)Cl,water,298,-0.2122,mol/L
C1O[C@@H]1[C@H]2CO2,water,298,1.065,mol/L
CCC(C)C(C)(C)C,water,298,-4.6776,mol/L
CC(C)(O)C1CCC(C)(O)CC1,water,298,-2.2362,mol/L
CCC(C)C(C)C,water,298,-4.2808,mol/L
CCC(C)C(C)O,water,298,-0.7216,mol/L
CCC(C)C(C)=O,water,298,-0.6805,mol/L
CCC(O)C(C)C,water,298,-0.7062,mol/L
CCC(=O)C(C)C,water,298,-0.8106,mol/L
NCC(O)C(O)=O,water,298,-0.8229,mol/L
CC(C)C(Br)C(O)=O,water,298,-1.103,mol/L
CC(C)C(C)C(C)C,water,298,-4.6961,mol/L
CC(C)C(=O)C(C)C,water,298,-1.3018,mol/L
CC(N)C(O)C(O)=O,water,298,-0.3535,mol/L
COc1cc(cc(OC)c1O)[C@H]2[C@@H]3[C@H](COC3=O)Cc4c(O)c5OCOc5cc24,water,298,-4.1254,mol/L
COc1ccc2COC(=O)c2c1OC,water,298,-1.8903,mol/L
OC(=O)c1[nH]cnc1C(O)=O,water,298,-2.4944,mol/L
OC1C(O)C(O)C(O[P](O)(O)=O)C(O)C1O,water,298,0.1076,mol/L
COCOC(=O)c1ccccc1O,water,298,-2.3,mol/L
OC(=O)COc1c(Cl)cc(Cl)cc1Cl,water,298,-3.0133,mol/L
OC(=O)C1CCNCC1C(O)=O,water,298,-0.5395,mol/L
Nc1cccc2nc3ccccc3cc12,water,298,-4.222,mol/L
OC(C(O)c1ccccc1)c2ccccc2,water,298,-1.933,mol/L
CCc1cccc(CC)c1N,water,298,-2.3478,mol/L
Brc1ccc2ccccc2c1,water,298,-4.4001,mol/L
Oc1cnc2ccccc2c1,water,298,-2.3925,mol/L
[O-]c1ccc2ccc[nH+]c2c1,water,298,-2.5038,mol/L
CCN(CC)c1nc(Cl)nc(n1)N(CC)CC,water,298,-4.4112,mol/L
C1N[C@@H](CC=C1)c2cccnc2,water,298,0.7953,mol/L
c1ccc(nc1)c2cccnc2,water,298,-0.5916,mol/L
S=C1Nc2cncnc2N1,water,298,-2.5243,mol/L
[K+].[K+].[O-]C(=O)C([O-])=O,water,298,0.1773,mol/L
CC1CCCCC1C,water,298,-4.2719,mol/L
CCC(O)CO,water,298,1.0452,mol/L
CC(C)=CC1C(C(=O)OC2CC(=O)C(=C2C)CC=C)C1(C)C,water,298,-4.8179,mol/L
C[C@H](NC(N)=O)C(O)=O,water,298,-0.7845,mol/L
CC(C)(C)c1cccc(O)c1,water,298,-1.8614,mol/L
[O-][N+](=O)c1cccc(Br)c1,water,298,-1.3054,mol/L
OC(=O)C\C(=C/C(O)=O)C(O)=O,water,298,0.3612,mol/L
OCC(O)C(O)C(OC1OC(CO)C(O)C(O)C1O)C(O)CO,water,298,0.2872,mol/L
OCC1OC(OCC2OC(O)C(O)C(O)C2O)C(O)C(O)C1O,water,298,0.4656,mol/L
Oc1cc(cc(c1)[N+]([O-])=O)[N+]([O-])=O,water,298,-1.663,mol/L
OC(=O)c1ccc(C(O)=O)c(Br)c1,water,298,-2.1339,mol/L
CC(C)=C1CCC(=CC1)C,water,298,-4.1566,mol/L
OCc1ccncc1,water,298,0.9621,mol/L
NC(=O)OC(CCl)CCl,water,298,-1.3605,mol/L
Cc1cccc(CO)c1,water,298,-0.388,mol/L
OC(=O)COc1cc(Cl)cc(Cl)c1,water,298,-2.3617,mol/L
OC(=O)COc1cccc(Cl)c1,water,298,-2.1954,mol/L
c1ccc(cc1)\C=C\c2ccccc2,water,298,-5.7905,mol/L
OCc1ccc(CO)cc1,water,298,-0.3861,mol/L
CCCC(C)CC,water,298,-4.3063,mol/L
CCC(C)CCO,water,298,-1.3759,mol/L
CCCC(=O)CC,water,298,-0.8334,mol/L
CCCCC(C)CC,water,298,-5.1591,mol/L
Brc1ccc(I)cc1,water,298,-4.5601,mol/L
CC1CCC(C)CC1,water,298,-4.4657,mol/L
CCCCOC(=O)CC,water,298,-1.9385,mol/L
I\C=C/I,water,298,-2.7813,mol/L
I\C=C\I,water,298,-3.2767,mol/L
[K+].[O-]C=O,water,298,0.9288,mol/L
CCCC(C)(C)C,water,298,-4.3575,mol/L
CCCC(C)(C)O,water,298,-0.4988,mol/L
[Cl-].CC(C[N+](C)(C)C)OC(N)=O,water,298,0.5021,mol/L
CCCCC(C)(C)C,water,298,-5.7568,mol/L
CC(C)CC=O,water,298,-0.7891,mol/L
NC(N)=NC(N)=O.NC(N)=NC(N)=O.O[S](O)(=O)=O,water,298,-0.7814,mol/L
CC1CCCC(=O)C1,water,298,-1.8738,mol/L
CC1=CCCCC1,water,298,-3.2671,mol/L
CCCCC(C)C,water,298,-4.5961,mol/L
CC(=O)OCC=C,water,298,-0.5534,mol/L
C/C=C/CCl,water,298,-1.9569,mol/L
CCCC\C=C\C,water,298,-3.816,mol/L
CCCCOC=O,water,298,-1.1307,mol/L
CCCCCCCCCCCCCCCCCC,water,298,-7.6275,mol/L
FCCl,water,298,-0.8202,mol/L
C[Se]C,water,298,-0.6502,mol/L
CCC(C)(C)Cl,water,298,-2.5106,mol/L
NC(=O)C(Br)(Br)Br,water,298,-1.2668,mol/L
CC(C)C(C)(C)O,water,298,-0.3708,mol/L
NC(=O)C(Cl)(Cl)Cl,water,298,-1.0966,mol/L
CC(Cl)(Cl)[N+]([O-])=O,water,298,-1.7603,mol/L
CCC(C)(O)C(C)C,water,298,-0.8504,mol/L
CCC(Cl)(Cl)[N+]([O-])=O,water,298,-1.4996,mol/L
CCC(CO)(CO)[N+]([O-])=O,water,298,0.8264,mol/L
CC(C)(CO)C=O,water,298,-0.3279,mol/L
CC(O)(CCl)CCl,water,298,-0.1822,mol/L
CCC(O)(CC)CC,water,298,-0.8399,mol/L
CC(=O)OCC(COC(C)=O)(COC(C)=O)COC(C)=O,water,298,-1.5686,mol/L
CCCC(C)(O)CC,water,298,-0.9897,mol/L
CCCC(C)(O)CCC,water,298,-1.5867,mol/L
CCCCC(C)(O)CC,water,298,-1.6028,mol/L
CC1(CCl)CO1,water,298,-0.5504,mol/L
ClC(Br)CBr,water,298,-2.5546,mol/L
CNC(N)=O,water,298,1.1303,mol/L
COC(C)C,water,298,-0.057,mol/L
NC(=O)C(Br)Br,water,298,-1.0574,mol/L
CC(Cl)C(Cl)Cl,water,298,-1.8898,mol/L
CC(Cl)C(O)=O,water,298,0.9645,mol/L
CC(Cl)[N+]([O-])=O,water,298,-1.4374,mol/L
Cc1ccc(cc1)[S](=O)(=O)Oc2ccccc2C,water,298,-3.9417,mol/L
CCOC(OCC)C(Cl)(Cl)Cl,water,298,-1.6464,mol/L
CCC(Cl)[N+]([O-])=O,water,298,-1.1887,mol/L
CC(C)C(O)C(C)C,water,298,-1.2201,mol/L
CCC(C(O)=O)C(O)=O,water,298,0.7315,mol/L
[O-][N+](=O)c1ccc2CCc3cccc1c23,water,298,-5.3403,mol/L
OC(=O)c1c(Br)c(O)c(O)c(O)c1Br,water,298,-0.4188,mol/L
Cc1c(cc(c(O)c1[N+]([O-])=O)[N+]([O-])=O)[N+]([O-])=O,water,298,-2.0434,mol/L
CC(O)Cn1cnc2N(C)C(=O)N(C)C(=O)c12,water,298,0.623,mol/L
OC(=O)c1cccc(c1C(O)=O)[N+]([O-])=O,water,298,-1.0214,mol/L
Oc1ccc(cc1)C(c2ccc(O)cc2)=C3C=CC(=O)C=C3,water,298,-2.3837,mol/L
CCOC(=O)c1ccccc1C(=O)c2ccccc2,water,298,-3.4053,mol/L
Oc1ccc2C(=O)c3ccccc3C(=O)c2c1,water,298,-5.3093,mol/L
COC(=O)c1ccccc1C(=O)c2ccccc2,water,298,-3.4776,mol/L
[O-][N+](=O)c1cc2C(=O)NC(=O)Nc2c(c1)[N+]([O-])=O,water,298,-3.2057,mol/L
CN1C(=O)C=Cc2ccccc12,water,298,-1.0466,mol/L
CC1=CC(=O)c2ccccc2N1,water,298,-1.2019,mol/L
Brc1cccc(Br)c1Br,water,298,-5.0402,mol/L
Cc1c(O)cccc1O,water,298,0.3264,mol/L
O[C@H]([C@H](O)[C@H](O)C(O)=O)[C@H](O)C(O)=O,water,298,0.1999,mol/L
ClC1C(Cl)C(Cl)C(Cl)C(Cl)C1Cl,water,298,-4.5605,mol/L
CCOC(=O)C(=O)C(=O)OCC,water,298,0.5117,mol/L
CCC(CO)[N+]([O-])=O,water,298,-0.3436,mol/L
Oc1c(Cl)cc(Cl)cc1[N+]([O-])=O,water,298,-4.0876,mol/L
OC(=O)c1cccc(C=O)c1O,water,298,-2.4423,mol/L
OC(=O)c1ccc(cc1[N+]([O-])=O)[N+]([O-])=O,water,298,-1.0665,mol/L
Cc1cccc2cc3ccccc3cc12,water,298,-5.8541,mol/L
[O-][N+](=O)c1ccc2COC(=O)c2c1,water,298,-2.6511,mol/L
O[C@@H](C(O)=O)c1ccccc1,water,298,-0.1417,mol/L
OC(C(O)=O)c1ccccc1,water,298,0.0545,mol/L
OCc1ccccc1CO,water,298,0.0569,mol/L
OCc1ccccc1C(O)=O,water,298,-1.5508,mol/L
CCc1ccccc1[N+]([O-])=O,water,298,-2.7993,mol/L
OCc1ccccc1[N+]([O-])=O,water,298,-1.4861,mol/L
Nc1ccc2cc3ccccc3cc2c1,water,298,-5.1722,mol/L
CCOC(=O)c1cccnc1,water,298,-0.4313,mol/L
Clc1ccccc1I,water,298,-3.54,mol/L
Ic1ccccc1I,water,298,-4.2399,mol/L
CCOC(=O)N(C)N=O,water,298,-0.5528,mol/L
Brc1ccc(Br)c(Br)c1,water,298,-4.808,mol/L
CCCCC(N)C(O)=O,water,298,-1.0453,mol/L
CCC(Cl)CC,water,298,-2.6307,mol/L
CCC(O)C=C,water,298,0.0193,mol/L
O=C1CCCN1,water,298,1.07,mol/L
Cn1ccnc1,water,298,1.0856,mol/L
CCCC(C(O)=O)C(O)=O,water,298,0.6803,mol/L
Oc1cc(O)c(cc1[N+]([O-])=O)[N+]([O-])=O,water,298,-3.4086,mol/L
OC(=O)c1cc(C=O)ccc1O,water,298,-2.6354,mol/L
CCCCCC(C(O)=O)C(O)=O,water,298,0.5921,mol/L
CCCC(O)C(C)C,water,298,-1.3093,mol/L
NC(CC(O)=O)C(O)=O,water,298,-1.2125,mol/L
OC(CC(O)=O)C(O)=O,water,298,0.8726,mol/L
NC(CCC(O)=O)C(O)=O,water,298,-0.8551,mol/L
NCc1occc1,water,298,1.0127,mol/L
CN(C)c1cccc(c1)[S](O)(=O)=O,water,298,0.2983,mol/L
[O-]C(=O)c1oc(Cl)cc1,water,298,-1.7188,mol/L
OC[C@H]1O[C@@H](Oc2ccccc2C=O)[C@H](O)[C@@H](O)[C@@H]1O,water,298,-1.1985,mol/L
Cc1ccc(cc1C)C([O-])=O,water,298,-3.0653,mol/L
OCc1cccc(c1)[N+]([O-])=O,water,298,-2.4142,mol/L
OC(=O)c1ccc(cc1)C#N,water,298,-2.0885,mol/L
OCc1ccc(cc1)[N+]([O-])=O,water,298,-1.8841,mol/L
CN(C)c1ccc(cc1)C(O)=O,water,298,-3.3979,mol/L
OCc1cccc(O)c1,water,298,-0.2678,mol/L
O=C(CC#N)Nc1ccccc1,water,298,-2.7275,mol/L
OC(=O)Cc1cccc(O)c1,water,298,0.8177,mol/L
CCCCCN(CCCCC)CCCCC,water,298,-4.0326,mol/L
Cc1ccc(cc1)N=C=S,water,298,-4.7213,mol/L
Cc1ccc(C=C)cc1,water,298,-3.1232,mol/L
OCc1ccc(O)cc1,water,298,-1.2678,mol/L
COc1ccc(Cl)cc1,water,298,-2.7793,mol/L
O=Cc1ccc(C=O)cc1,water,298,-2.8265,mol/L
CCCC(=O)OC,water,298,-0.8331,mol/L
CC(COC(C)=O)OC(C)=O,water,298,-0.2046,mol/L
CCOCCOC(=O)CCCCCCCCC(=O)OCCOCC,water,298,-3.1972,mol/L
CCOC(=O)CCCCCCCC(=O)OCC,water,298,-2.99,mol/L
CCCCC(=O)OC,water,298,-1.3606,mol/L
Ic1ccc(I)cc1,water,298,-5.3723,mol/L
COC(=O)\C=C/C(=O)OC,water,298,-0.2557,mol/L
CCCCCCC(O)CC,water,298,-2.6608,mol/L
CCCCCOC(=O)CC,water,298,-2.2505,mol/L
ICCI,water,298,-3.2196,mol/L
CC(C)(C)CCO,water,298,-1.1308,mol/L
CC(C)CC(C)(C)O,water,298,-0.9307,mol/L
CCC(C)(C)NC(N)=O,water,298,-1.0142,mol/L
CCCCC(C)(C)O,water,298,-1.0784,mol/L
CCCCCC(C)(C)O,water,298,-1.7168,mol/L
CCCC(C)Cl,water,298,-2.3603,mol/L
COCC(C)C,water,298,-0.9007,mol/L
COCC(O)=O,water,298,1.0454,mol/L
OCC[N+]([O-])=O,water,298,1.0406,mol/L
CCOC(C)C,water,298,-0.5607,mol/L
CC(C)OC=O,water,298,-0.6301,mol/L
Clc1cccc(I)c1,water,298,-3.55,mol/L
Ic1cccc(I)c1,water,298,-4.57,mol/L
OC1=CC(=O)C=CN1,water,298,-1.2498,mol/L
OCc1cccc(CO)c1,water,298,-0.2328,mol/L
CC1=CC(=O)NC(=O)N1,water,298,-1.2557,mol/L
O=C1C=CNC=C1,water,298,1.0218,mol/L
CC(C)CCOCC(O)COCCC(C)C,water,298,-1.3662,mol/L
CCOC(=O)CCCCC(O)=O,water,298,-0.3602,mol/L
CC(C)CCCO,water,298,-1.1286,mol/L
CC\C=C/C(O)=O,water,298,-0.2019,mol/L
CCCOC(C)C,water,298,-1.3373,mol/L
CCCO[N+]([O-])=O,water,298,-1.5044,mol/L
OCCCBr,water,298,0.0093,mol/L
OCCCCl,water,298,0.4223,mol/L
COCCCl,water,298,-0.0725,mol/L
CC(C)CCC(C)O,water,298,-1.375,mol/L
CC(C)CCOCC(O)CO,water,298,-1.2101,mol/L
COC(=O)CCCCC(=O)OC,water,298,-1.4629,mol/L
CCCCOC,water,298,-0.9907,mol/L
CCCOCC,water,298,-0.6806,mol/L
CCCCCOC(C)=O,water,298,-1.8841,mol/L
CC(=O)OCCCOC(C)=O,water,298,-0.2046,mol/L
CCCCCC#C,water,298,-3.0099,mol/L
C1CCC=CCC1,water,298,-3.1635,mol/L
CCCCCCC#C,water,298,-3.662,mol/L
CCCCCCCCCCCCC,water,298,-7.5936,mol/L
CCCCCCCCCCCCCC,water,298,-7.9551,mol/L
CCCCCCCCCCCCCCC,water,298,-9.4464,mol/L
CCCCCCCCCCCCCCCO,water,298,-6.3476,mol/L
CCCCCCCCCCCCCCCCCCCCCCCCCC,water,298,-8.3339,mol/L
CCCCCCCCCCCCCCCCCCCCCCCCCCCCCCCCCCCC,water,298,-8.4746,mol/L
ClCC(Cl)(Cl)Cl,water,298,-2.1955,mol/L
CCC1(NC(=O)NC1=O)c2ccccc2,water,298,-2.1702,mol/L
OC(=O)C(Br)Br,water,298,0.9861,mol/L
Cc1cc(N[S](=O)(=O)c2ccc(N)cc2)sn1,water,298,-1.0762,mol/L
NCC(O)C(O)=O,water,298,-0.8369,mol/L
CN(C)C(=O)N(C)C,water,298,0.9349,mol/L
OC(=O)c1c(Cl)c(Cl)c(Cl)c(Cl)c1C(O)=O,water,298,-1.9264,mol/L
CC1=C(C=C)/C(NC1=O)=C/c2[nH]c(Cc3[nH]c(\C=C\4NC(=O)C(=C4C)C=C)c(C)c3CCC(O)=O)c(CCC(O)=O)c2C,water,298,-4.8127,mol/L
Oc1ccc2N=C3C=CC(=O)C=C3Oc2c1,water,298,-1.0277,mol/L
CC1=CNC(=S)NC1=O,water,298,-2.4461,mol/L
OC(=O)c1ccc(O)c(c1)C(O)=O,water,298,-2.7833,mol/L
CC(CC(O)=O)C(O)=O,water,298,0.4143,mol/L
OC(CC(O)=O)C(O)=O,water,298,0.4331,mol/L
OC(=O)C1=CCCCC1,water,298,-1.2558,mol/L
Oc1ccc(cc1)N=O,water,298,-1.5462,mol/L
CCC(=O)OC(C)C,water,298,-1.2906,mol/L
Clc1ccc(I)cc1,water,298,-3.54,mol/L
CCOC(C)(C)C,water,298,-0.9302,mol/L
CC1NC(C)SC(C)S1,water,298,-1.3679,mol/L
CC(=O)NC(=O)NC(C)=O,water,298,-0.3137,mol/L
CCCCCCCCCCCCC(O)=O,water,298,-3.8126,mol/L
CCSCCS[P](=S)(OC)OC,water,298,-3.0905,mol/L
NC(=O)CF,water,298,1.1132,mol/L
C[C@H](CCC(=O)NCC(O)=O)[C@H]1CC[C@H]2[C@@H]3[C@H](O)C[C@@H]4C[C@H](O)CC[C@]4(C)[C@H]3CC[C@]12C,water,298,-5.1546,mol/L
CC(=O)OOC(=O)c1ccccc1,water,298,-2.4502,mol/L
CCCc1ccc(O)cc1,water,298,-2.0276,mol/L
CCC\C=C(/CC)C=O,water,298,-2.3332,mol/L
NC1=NC(=O)N=C(N)N1,water,298,-3.2291,mol/L
CC\C=C\C,water,298,-2.5384,mol/L
C1COCO1,water,298,1.1303,mol/L
NCCCCC(O)=O,water,298,0.9313,mol/L
N[C@@H](CCO)C(O)=O,water,298,0.924,mol/L
CCNc1nc(NCC)nc(OC)n1,water,298,-1.7898,mol/L
CN(C)[P](=O)(N(C)C)N(C)C,water,298,0.7467,mol/L
CCS[S](=O)(=O)CC,water,298,-1.109,mol/L
CCCC[Sn](Cl)(Cl)CCCC,water,298,-3.5188,mol/L
ClC(Br)C(Cl)Br,water,298,-2.5644,mol/L
NC(=O)C(Cl)Cl,water,298,-0.2558,mol/L
CN(N=O)C(N)=O,water,298,-0.8548,mol/L
CCOC(=O)N[C@@H](C=O)[C@@H](O)[C@H](O)[C@H](O)CO,water,298,0.1139,mol/L
C=CC#C,water,298,-1.4648,mol/L
CC(C)CC=C,water,298,-3.2439,mol/L
[O-][N+](=O)OCCOCCO[N+]([O-])=O,water,298,-1.7015,mol/L
OC(=O)CCCCCCCCCCC(O)=O,water,298,-3.7603,mol/L
Clc1ccccc1Br,water,298,-3.63,mol/L
CN1C=CC=CC1=O,water,298,0.9621,mol/L
O=[I](=O)c1ccccc1,water,298,-1.8416,mol/L
CNc1cccc(C)c1,water,298,-2.05,mol/L
Cc1cc(C)c(C)c(O)c1,water,298,-2.2522,mol/L
CCc1cc(C)cc(O)c1,water,298,-1.7696,mol/L
Cc1ccc(c(O)c1)[N+]([O-])=O,water,298,-2.7505,mol/L
O=C1N=CNc2nccnc12,water,298,-1.4716,mol/L
Nc1ncc2nccnc2n1,water,298,-2.2979,mol/L
ClC1=C(Cl)C(Cl)(Cl)C(Cl)(Cl)C1(Cl)Cl,water,298,-6.5362,mol/L
CN1C(=O)NC2=C(NC(=O)N2)C1=O,water,298,-1.5614,mol/L
NC(=S)Nc1cccc(c1)[N+]([O-])=O,water,298,-1.4499,mol/L
Cc1nn(c2ccccc2)c(C)c1N=O,water,298,-3.7355,mol/L
OC(=O)c1c2ccccc2cc3ccccc13,water,298,-3.4174,mol/L
Cc1oc(N[S](=O)(=O)c2ccc(N)cc2)nc1C,water,298,-2.2025,mol/L
CN(C)[S](=O)(=O)N(SC(F)(Cl)Cl)c1ccc(C)cc1,water,298,-5.5864,mol/L
CO[P](=S)(OC)SCN1C(=O)c2ccccc2C1=O,water,298,-4.1141,mol/L
CC(C)(C)c1cc(c(O)c(c1)C(C)(C)C)C(C)(C)C,water,298,-3.875,mol/L
CC(C)O[P](=S)(OC(C)C)SCCN[S](=O)(=O)c1ccccc1,water,298,-4.2014,mol/L
C[Sn](C)(Cl)Cl,water,298,-1.0407,mol/L
CO[P](C)(=O)OC,water,298,0.9063,mol/L
CCO[P](=O)(OCC)O[P](=O)(OCC)O[P](=O)(OCC)O[P](=O)(OCC)OCC,water,298,0.2956,mol/L
CCN(N=O)C(N)=O,water,298,-0.9547,mol/L
ClCC(Cl)C=C,water,298,-2.4737,mol/L
CCCCCCCC(C(O)=O)C(O)=O,water,298,-2.0411,mol/L
CCCCCCCCC(C(O)=O)C(O)=O,water,298,-2.92,mol/L
CCCC(N)C(O)=O,water,298,-0.1448,mol/L
FCCCl,water,298,-0.5291,mol/L
CCCC(C)=C,water,298,-3.033,mol/L
CCOCCC(=O)OCC,water,298,-0.4206,mol/L
CC(C)=CC=C(C)C,water,298,-3.537,mol/L
ClC/C=C/CCl,water,298,-2.3335,mol/L
O=CC1CO1,water,298,1.1423,mol/L
COc1ccccc1Cl,water,298,-2.4639,mol/L
Cc1cc(C)nc(N)n1,water,298,-0.4884,mol/L
C1CC[C@@H]2NCCC[C@H]2C1,water,298,-1.0831,mol/L
CC(O)COc1ccccc1,water,298,-1.141,mol/L
C1Cc2ccccc2c3ccccc13,water,298,-4.6347,mol/L
O=C(NNC(=O)c1ccccc1)c2ccccc2,water,298,-1.5883,mol/L
Clc1ccc(cc1)C(c2ccccc2Cl)C(Cl)(Cl)Cl,water,298,-6.6202,mol/L
CCCO[P](=O)(OCC)OCC,water,298,0.4063,mol/L
CCCC[P](=O)(CCCC)CCCC,water,298,-0.5932,mol/L
CCOC(=O)CCCC(=O)OCC,water,298,-1.3297,mol/L
OCCOC(=O)C=C,water,298,0.9351,mol/L
[Ca++].[O-][S](=O)(=O)C[S]([O-])(=O)=O,water,298,0.1255,mol/L
OCCCC=C,water,298,-0.1793,mol/L
CC(O)CCOCCC(C)O,water,298,0.7899,mol/L
OC(=O)CCCCCCCCCCCCC(O)=O,water,298,-3.1112,mol/L
CC(C)C1OCCO1,water,298,-0.0651,mol/L
CSc1ncccn1,water,298,-0.402,mol/L
CC1CC(OC(C)O1)OC(C)=O,water,298,0.759,mol/L
CN1C(=O)N(C)c2nc(C)[nH]c2C1=O,water,298,-0.7276,mol/L
CN1C(=O)N(C)c2nc(C)n(C)c2C1=O,water,298,-1.4493,mol/L
CCOC(=O)[C@H](Cc1ccc(O)cc1)NC(C)=O,water,298,-1.8586,mol/L
COCCCNc1nc(NC(C)C)nc(SC)n1,water,298,-2.9284,mol/L
COCCCNc1nc(NCCCOC)nc(SC)n1,water,298,-3.4792,mol/L
OC1N=C(c2ccccc2Cl)c3cc(Cl)ccc3NC1=O,water,298,-3.6036,mol/L
CC(=O)O[C@H]1CC[C@]2(C)[C@H]3CC[C@@]4(C)[C@@H](CCC4=O)[C@@H]3CC=C2C1,water,298,-4.4584,mol/L
CC(=O)CCC1C(=O)N(N(C1=O)c2ccccc2)c3ccccc3,water,298,-3.2676,mol/L
CCO[P](=O)(OCC)C(Cl)(Cl)Cl,water,298,-1.7541,mol/L
[K+].[K+].[K+].OC(CC([O-])=O)(CC([O-])=O)C([O-])=O,water,298,0.2962,mol/L
CC(=O)OC(OC(C)=O)C=C,water,298,-1.2449,mol/L
CC(=O)NCCNC(C)=O,water,298,0.6755,mol/L
CCCCCCCCC=C,water,298,-5.3911,mol/L
CN1CCCC1=O,water,298,1.0038,mol/L
OCc1ccc(Br)cc1,water,298,-1.9295,mol/L
OCc1ccc(Cl)cc1,water,298,-1.7561,mol/L
[K+].OC(=O)c1ccccc1C([O-])=O,water,298,-0.3895,mol/L
CCOc1nc(OCC)nc(OCC)n1,water,298,-1.4838,mol/L
[O-][N+](=O)c1ccc2c3ccccc3c4cccc1c24,water,298,-7.1031,mol/L
CN(C)[C@H]1[C@@H]2[C@@H](O)[C@@H]3C(=C)c4cccc(O)c4C(=C3C(=O)[C@]2(O)C(=O)\C(=C(N)/O)C1=O)O,water,298,-1.768,mol/L
COCCNC(=O)CS[P](=S)(OC)OC,water,298,-1.1356,mol/L
CCSCCS[P](=O)(OC)OC,water,298,-1.8438,mol/L
CCOC(C)(C)CC,water,298,-2.4631,mol/L
CC(C(O)=O)C(C)(C)CCC(O)=O,water,298,-1.5265,mol/L
OCNC(=O)C=C,water,298,0.8101,mol/L
CCCC(=O)NCCNC(=O)CCC,water,298,-0.6222,mol/L
CCCCCC(=O)CCCCC,water,298,-3.5322,mol/L
CCCCO[N+]([O-])=O,water,298,-2.0268,mol/L
CCC#CCC,water,298,-2.1675,mol/L
O=NN1CCCC1,water,298,0.9995,mol/L
O=NN1CCCCCC1,water,298,-1.0006,mol/L
Oc1c(Cl)ccc(Cl)c1Cl,water,298,-2.6422,mol/L
Cc1[nH]c2cncnc2n1,water,298,-0.3829,mol/L
O=C1CCCCCCCN1,water,298,0.6329,mol/L
O=[S]1(=O)NCc2ccccc12,water,298,-1.5208,mol/L
Cc1cnc2cncnc2n1,water,298,0.0571,mol/L
CN(Cc1ccccc1)N=O,water,298,-1.5224,mol/L
BrC1=CC(=O)Oc2ccccc12,water,298,-1.6533,mol/L
COc1cc(Cl)c(Cl)c(Cl)c1Cl,water,298,-5.2605,mol/L
Cc1ccc(OCC(O)=O)cc1,water,298,-2.1414,mol/L
COc1ccc(\C=C\C(O)=O)cc1,water,298,-1.9573,mol/L
COc1c(Cl)c(Cl)c(Cl)c(Cl)c1OC,water,298,-5.2394,mol/L
CCO[P](=O)(OCC)N=C1SCCS1,water,298,-2.5941,mol/L
O=C1CCCCCCCCCCCN1,water,298,-2.8328,mol/L
CCO[P](=O)(OCC)N=C1SCC(C)S1,water,298,-3.6744,mol/L
COC1=NN(CS[P](=S)(OC)OC)C(=O)S1,water,298,-3.2086,mol/L
CN(C)C(=O)C(c1ccccc1)c2ccccc2,water,298,-2.964,mol/L
CC(=O)C1(C)CCC2C3C=C(C)C4=CC(=O)CCC4(C)C3CCC12C,water,298,-5.2721,mol/L
C[P](O)(O)=O,water,298,-0.6813,mol/L
CC(C)N(C)C,water,298,1.0597,mol/L
CCOC(=O)CO[N+]([O-])=O,water,298,-1.7111,mol/L
CCOC(=O)CNC(=O)OCC,water,298,-0.2435,mol/L
CC(O)COC(=O)C=C,water,298,0.8856,mol/L
NC(=O)NCO,water,298,-0.3463,mol/L
CCCCCO[N+]([O-])=O,water,298,-2.568,mol/L
CC1CCC(C)O1,water,298,0.0723,mol/L
Cc1cc[n+]([O-])cc1,water,298,0.9621,mol/L
CC1=CC=C[NH++]([O-])[CH-]1,water,298,0.9621,mol/L
CCNc1nc(N)nc(Cl)n1,water,298,-2.4135,mol/L
O=C1CCCCCCCCCN1,water,298,-1.8862,mol/L
CNc1nc(NC(C)C)nc(SC)n1,water,298,-2.5656,mol/L
CCCCn1cnc2N(C)C(=O)N(C)C(=O)c12,water,298,-1.8069,mol/L
O=C1OC(=Nc2ccccc12)c3ccccc3,water,298,-4.6084,mol/L
ClC1C2OC2C3C1C4(Cl)C(=C(Cl)C3(Cl)C4(Cl)Cl)Cl,water,298,-6.2893,mol/L
CN(C)[P](=O)(N(C)C)n1nc(nc1N)c2ccccc2,water,298,-3.0709,mol/L
OC(=O)CNc1c(cc(cc1[N+]([O-])=O)[N+]([O-])=O)[N+]([O-])=O,water,298,-2.3922,mol/L
CCCCCCCCOC(=O)c1cc(O)c(O)c(O)c1,water,298,-3.8945,mol/L
C[Si](C)(O)O,water,298,1.0354,mol/L
CCCC[Sn++]CCCC.CC([O-])=O.CC([O-])=O,water,298,-4.7672,mol/L
OC(=O)CNC[P](O)(O)=O,water,298,-1.2069,mol/L
S=C1NNC(=S)S1,water,298,-0.7552,mol/L
Fc1ccccc1Br,water,298,-2.6958,mol/L
Oc1cnn(c1)c2ccccc2,water,298,-1.9616,mol/L
CCCCCCCc1ccccc1,water,298,-5.5959,mol/L
CCCCCCOC(=O)c1ccc(O)cc1,water,298,-3.949,mol/L
CCCCCCCOC(=O)c1ccc(O)cc1,water,298,-4.0725,mol/L
CN(C)[S](=O)(=O)N(SC(F)(Cl)Cl)c1ccccc1,water,298,-5.4088,mol/L
CC(C)(C)C(=O)OCC(=O)C1(O)CCC2C3CCC4=CC(=O)C=CC4(C)C3C(O)CC12C,water,298,-4.5835,mol/L
CNC(=O)CS[P](=O)(OC)OC,water,298,0.6712,mol/L
CCCCN(CC)C(=O)SCCC,water,298,-3.3082,mol/L
CSCC[C@@H](NC(C)=O)C([O-])=O,water,298,-0.3216,mol/L
CCCCCC(N)C(O)=O,water,298,-0.94,mol/L
OCCN(CCO)N=O,water,298,0.8724,mol/L
CCCCCCCCN(CCCCCCCC)CCCCCCCC,water,298,-6.8496,mol/L
CC(C)(C)NC(N)=O,water,298,-0.7306,mol/L
C[Si](C)(O)O[Si](C)(C)O,water,298,-0.1796,mol/L
COC(=O)CCCC(=O)OC,water,298,-0.4337,mol/L
OC(=O)CCSSCCC(O)=O,water,298,-0.1944,mol/L
CCCCC#CC,water,298,-2.7695,mol/L
CCCCCCCCCCC,water,298,-7.5505,mol/L
Cc1cc(C)c(C)cn1,water,298,-0.7824,mol/L
CN(C)c1cc[nH+]cc1,water,298,-0.2062,mol/L
CCc1cccc(C)n1,water,298,-0.8234,mol/L
OC(=O)C1(O)CCCCC1,water,298,-0.3328,mol/L
Cc1cc(Cl)cc(C)c1O,water,298,-1.6763,mol/L
Clc1cnc2ncncc2n1,water,298,-1.1247,mol/L
Clc1cnc2cncnc2n1,water,298,-0.8749,mol/L
Oc1ccc(CC=C)cc1O,water,298,-0.7787,mol/L
Cc1cc(N)n(n1)c2ccccc2,water,298,-0.9376,mol/L
Oc1ccc(cc1)C2CCCCC2,water,298,-3.468,mol/L
CCSC(=O)N(CC)C1CCCCC1,water,298,-3.4037,mol/L
Cl[Sn](Cl)(c1ccccc1)c2ccccc2,water,298,-3.8373,mol/L
CCCCN1C(=O)N(C)c2ncn(C)c2C1=O,water,298,-1.6252,mol/L
Cc1ccc(cc1)[S](=O)(=O)NC(=O)NN2CCCCCC2,water,298,-3.6778,mol/L
COC1[C@H](O)C(C)O[C@H](O[C@H]2CC[C@@]3(C=O)[C@H](CCC4C3CC[C@]5(C)[C@H](CC[C@]45O)C6=CC(=O)OC6)C2)C1O,water,298,-3.1373,mol/L
CCC(C)(C)CO,water,298,-1.1286,mol/L
CCC(C(CC)C(O)=O)C(O)=O,water,298,-0.8608,mol/L
N[C@@H]([C@@H](O)C(O)=O)C(O)=O,water,298,-0.8271,mol/L
CCN(CC)C(=O)N(CC)CC,water,298,-0.6341,mol/L
CC(C)C[C@H](NC(C)=O)C(O)=O,water,298,-1.3301,mol/L
OC1=CC(=O)NC=N1,water,298,-1.6516,mol/L
Oc1ccc(O)c(C=O)c1,water,298,-1.0004,mol/L
NCC1CCC(CC1)C(O)=O,water,298,0.0255,mol/L
Cc1cc(C)c2ccccc2n1,water,298,-1.9424,mol/L
Oc1c(O)c(Cl)c(Cl)c(Cl)c1Cl,water,298,-4.9629,mol/L