Solute,Solvent,Temperature_K,Solubility,Units
C=CCOC(=O)c1ccccc1C(=O)OCC=C,water,298,-3.221135687,mol/L
NC(Nc1ccccc1)=Nc2ccccc2,water,298,-2.157516386,mol/L
CC(C)(C)S,water,298,-1.787845868,mol/L
OCCCNc1ccc(O)cc1[N+]([O-])=O,water,298,-2.160917988,mol/L
Cc1ccccc1C,water,298,-2.86164078,mol/L
Cc1cccc(C)c1,water,298,-2.86164078,mol/L
Cc1ccc(C)cc1,water,298,-2.86164078,mol/L
CC1CC(O)CC(C)(C)C1,water,298,-1.991659848,mol/L
CN(C)c1ccccc1,water,298,-1.922073697,mol/L
COc1cc(c(OC)cc1Cl)[N+]([O-])=O,water,298,-3.179312365,mol/L
[K+].[I-],water,298,0.935222717,mol/L
[H+].[H+].[Cl-].[Cl-].CCCCCCCCN=C1C=CN(CCCCCCCCCCN2C=CC(C=C2)=NCCCCCCCC)C=C1,water,298,-1.642786266,mol/L
O=C/C=C/c1ccccc1,water,298,-1.968818258,mol/L
CC(C)C(=O)OCCc1ccccc1,water,298,-3.131596076,mol/L
CN(CCO)[S](=O)(=O)C(F)(F)C(F)(F)C(F)(F)C(F)(F)F,water,298,-3.403685043,mol/L
CC12CCCC(C)(CC1)C2=NO,water,298,-3.074152207,mol/L
CC(=O)Nc1ccc(O)cc1,water,298,-1.033323213,mol/L
CCCCOC(C)=O,water,298,-0.918928568,mol/L
CCCCCCN,water,298,-0.859022436,mol/L
CC(F)(F)Cl,water,298,-1.856016419,mol/L
Nc1cc(cc(c1O)[N+]([O-])=O)[N+]([O-])=O,water,298,-2.15299121,mol/L
[Fe++].[O-]C(=O)\C=C/C([O-])=O,water,298,-2.084067899,mol/L
C/C=C/C(=O)C1C(=CCCC1(C)C)C,water,298,-3.137855765,mol/L
Cc1cc(ccc1N)[N+]([O-])=O,water,298,-3.036152484,mol/L
CCCCCCCCCO,water,298,-3.013011871,mol/L
CCCOC(=O)C1CCCCC1C(=O)OCCC,water,298,-3.262691733,mol/L
Cc1ccc2nc(sc2c1[S](O)(=O)=O)c3ccc(N)cc3,water,298,-4.332499462,mol/L
O=C1CCCCCCCCCCCC(=O)OCCO1,water,298,-4.261695179,mol/L
Oc1ccc(cc1)C2CCCCC2,water,298,-4.075889586,mol/L
Oc1cc(Cl)ccc1Oc2ccc(Cl)cc2,water,298,-4.239393124,mol/L
CC(C)=CC\C=C(/C)C=C,water,298,-3.972930257,mol/L
[CaH2].O=[Zr],water,298,-4.012741254,mol/L
CC(CC(=O)OOC(C)(C)C)CC(C)(C)C,water,298,-4.210096102,mol/L
CC(C)=CCC\C(C)=C\CCC(C)(O)C=C,water,298,-4.197860989,mol/L
Nc1nc(N)nc(Nc2nc(N)nc(N)n2)n1,water,298,-4.225336978,mol/L
CCCCOC(=O)CSCSCC(=O)OCCCC,water,298,-4.343077858,mol/L
COC(=O)C1CC2(CCC1(C)C=C2)C(C)C,water,298,-4.200866126,mol/L
CC1CCCCC1,water,298,-3.845934801,mol/L
CC(C)(OO)c1ccccc1,water,298,-1.039379878,mol/L
CI,water,298,-1.009086941,mol/L
O=C(OCC1CCC2OC2C1)C3CCC4OC4C3,water,298,-1.26048469,mol/L
[O--].[O--].[Mg++].[Ca++],water,298,-1.842478945,mol/L
COC(=O)OC,water,298,0.185260351,mol/L
[O-][N+](=O)OCC(CO[N+]([O-])=O)O[N+]([O-])=O,water,298,-2.216309362,mol/L
[Na+].CC\1=Nc2ccccc2C1=N/Nc3cc(Cl)c(cc3Cl)[S](=O)(=O)NCC[S]([O-])(=O)=O,water,298,-3.57054294,mol/L
CC(=C)C(=O)OC1CCCCC1,water,298,-3.088564823,mol/L
[K].CCCCCCCCCCCCCCCCCC.O[P](O)(O)=O,water,298,-3.45557689,mol/L
CCCCCCCCN1CCCC1=O,water,298,-2.1616366,mol/L
CCC(=O)OCCc1ccccc1,water,298,-3.117444335,mol/L
CCCC(=O)OCc1ccccc1,water,298,-3.117444335,mol/L
CC(=O)Nc1ccc(N)c(c1)[S](O)(=O)=O,water,298,-1.231856439,mol/L
NO[S](O)(=O)=O,water,298,0.07528272,mol/L
CC/C=C/CCOC(=O)OC,water,298,-3.069830648,mol/L
O=[Ca],water,298,-1.622458512,mol/L
CCN(CC)CC,water,298,0.11870117,mol/L
CCCCCC(=O)OC,water,298,-1.990715978,mol/L
C1CC2CC1C=C2,water,298,-2.847721205,mol/L
Cc1ccc(c(C)c1)[N+]([O-])=O,water,298,-3.055599607,mol/L
OC(=O)CSc1sc2ccccc2n1,water,298,-3.228897985,mol/L
CC(C)(C)c1ccc(C=O)cc1,water,298,-3.086284881,mol/L
CC(=C)C(=O)OC1CCCCC1,water,298,-3.102067293,mol/L
ClCCl,water,298,-0.808502533,mol/L
CC(C)(C)c1ccc(CCC=O)cc1,water,298,-3.158832906,mol/L
OC(=O)c1cc(cc(c1)[N+]([O-])=O)[N+]([O-])=O,water,298,-2.207649723,mol/L
C=C,water,298,-2.330723497,mol/L
CC1(C)CC(CC(C)(C)N1)N(CCCCCCN(C=O)C2CC(C)(C)NC(C)(C)C2)C=O,water,298,-1.539955769,mol/L
NNC(N)=S,water,298,-0.845760907,mol/L
CCCCCCO,water,298,-1.895409795,mol/L
CCCCC(CC)C1OCCO1,water,298,-3.119596868,mol/L
CCC(C)(C)OOC(C)(C)CC,water,298,-4.100435339,mol/L
CCC(=O)/C=C/C1=C(C)CCCC1(C)C,water,298,-4.187455475,mol/L
CC(C)C(OC(=O)C(C)C)C(C)(C)COC(=O)C(C)C,water,298,-4.333139569,mol/L
CCC(=O)OC1CCC(CC1)C(C)C,water,298,-4.173484214,mol/L
CCCCCCCC[Si](OC)(OC)OC,water,298,-4.246128199,mol/L
CC(C)C(OC(=O)C(C)C)C(C)(C)COC(=O)C(C)C,water,298,-4.336417279,mol/L
CCC1(C)OOC(C)(CC)OOC(C)(CC)OO1,water,298,-4.304855444,mol/L
CCCCOC(=O)c1ccccc1C(=O)OCCCC,water,298,-4.330644753,mol/L
CN(C)Cc1cc(c(O)c(c1)C(C)(C)C)C(C)(C)C,water,298,-4.306713636,mol/L
O[C@]12COC(O[C@@H]1[C@H]3OC(OC[C@H]3O2)c4ccccc4)c5ccccc5,water,298,-4.437962659,mol/L
[CaH2].O=[Zr],water,298,-4.060165903,mol/L
FC=C,water,298,-0.552583335,mol/L
CCOC(=O)C1=NN(C(=O)C1)c2ccccc2,water,298,-3.255345443,mol/L
CC(C)CCCCCCO,water,298,-3.051929937,mol/L
CCCCCCCCCO,water,298,-3.051929937,mol/L
C=CCCCCCC=O,water,298,-1.997252193,mol/L
Cc1c(cc(cc1[N+]([O-])=O)[N+]([O-])=O)[N+]([O-])=O,water,298,-3.252474604,mol/L
OC(=O)C(c1ccccc1)c2ccccc2,water,298,-3.223039886,mol/L
[K+].[I-],water,298,0.880257225,mol/L
CC(C)(C)c1ccc(cc1)C(O)=O,water,298,-1.150612699,mol/L
CCCCCCCC/C=C/CCCCCCCC(=O)NCCCN(C)C,water,298,-2.463862192,mol/L
CCCCCCC(=O)OCC,water,298,-3.098948474,mol/L
CC(C)OC(Cl)=O,water,298,-0.988291129,mol/L
[Na+].Oc1ccccc1C([O-])=O,water,298,-0.107492169,mol/L
CC(Cl)(Cl)Cl,water,298,-2.028262094,mol/L
CC(=O)OC(=C)c1ccccc1,water,298,-2.113595388,mol/L
CCOC(=O)CC1(C)OCC(C)O1,water,298,-2.179887223,mol/L
[S--].[Co++],water,298,-1.865514649,mol/L
Clc1cccc(Cl)c1,water,298,-3.072159801,mol/L
Cc1ccccc1CCO,water,298,-1.042878011,mol/L
Cc1ccc(Cl)cc1,water,298,-3.012480565,mol/L
Cc1ccn2nc(nc2n1)[S](=O)(=O)Nc3c(F)cccc3F,water,298,-3.422378952,mol/L
Oc1ccc(Cl)c(O)c1,water,298,-1.070567643,mol/L
CC1(C)C2CC(O)C(=C)C1C2,water,298,-2.09612479,mol/L
CC(C)C1CCC(O)CC1,water,298,-2.068094275,mol/L
[O-][N+](=O)c1ccc(Cl)c(Cl)c1,water,298,-3.20051812,mol/L
[Na+].[Na+].CC1=NN(C(=O)C1N=Nc2ccc(cc2)[S]([O-])(=O)=O)c3cc(Cl)c(cc3Cl)[S]([O-])(=O)=O,water,298,-0.66054277,mol/L
N.[Fe+3].OC(CC([O-])=O)(CC([O-])=O)C([O-])=O,water,298,0.660921397,mol/L
[Na+].[Na+].Nc1ccc(cc1[S]([O-])(=O)=O)N=Nc2ccc(cc2)[S]([O-])(=O)=O,water,298,-0.524323625,mol/L
CCCCCCN,water,298,-0.925969225,mol/L
C=CC(=O)OCCCOCC(COCCCOC(=O)C=C)OCCCOC(=O)C=C,water,298,-2.552747282,mol/L
CN(C)c1ccccc1,water,298,-2.004260454,mol/L
CC(=O)Nc1ccc(cc1)[S](=O)(=O)CCO,water,298,-2.306932302,mol/L
C#C,water,298,-1.336426377,mol/L
CCC(=O)c1ccccc1,water,298,-2.048500068,mol/L
CC(C)(C)c1ccc(C=O)cc1,water,298,-3.130955276,mol/L
Nc1ccc2cc(ccc2c1)[S](O)(=O)=O,water,298,-3.269616058,mol/L
CCC(=O)CCC1C(=CCCC1(C)C)C.OCC#C,water,298,-4.321905689,mol/L
CCCCC(CC)CO[N+]([O-])=O,water,298,-4.146693491,mol/L
CCOC1CC(C)CC(C)(C)C1,water,298,-4.134294434,mol/L
CC(C)CCCCCOC(=O)C=C,water,298,-4.170655467,mol/L
O=C1N(SC2CCCCC2)C(=O)c3ccccc13,water,298,-4.323794172,mol/L
Cc1cc(C)c(c(C)c1Nc2ccc(Nc3c(C)cc(C)c(c3C)[S](=O)(=O)NC4CCCCC4)c5C(=O)c6ccccc6C(=O)c25)[S](=O)(=O)NC7CCCCC7,water,298,-4.818703465,mol/L
Cc1cc(c(O)c(C)c1CC#N)C(C)(C)C,water,298,-4.257902463,mol/L
S=[Cd],water,298,-4.080623481,mol/L
CCO[P](=O)(Cc1cc(c(O)c(c1)C(C)(C)C)C(C)(C)C)OCC,water,298,-4.472808844,mol/L
[O--].[O--].[O--].[O--].[O--].[O--].[O--].[O--].[O--].[Fe+3].[Fe+3].[Mo].[Mo],water,298,-4.57167099,mol/L
[Na+].Oc1ccccc1C([O-])=O,water,298,-0.128855221,mol/L
[Zn++].CC(C)(C)CC(C)(C)CC([O-])=O.CC(C)(C)CC(C)(C)CC([O-])=O,water,298,-3.534288097,mol/L
CC(CCC=C(C)C)CC#N,water,298,-3.104157036,mol/L
CC(=O)Oc1ccccc1[N+]([O-])=O,water,298,-2.185523911,mol/L
CCOc1cc(NC(=O)c2ccccc2)c(OCC)cc1N,water,298,-2.405757197,mol/L
S=C1Nc2ccccc2S1,water,298,-3.151504892,mol/L
CCOc1nc(NC)nc(NC(=O)N[S](=O)(=O)c2ccccc2C(=O)OC)n1,water,298,-3.541338043,mol/L
COC(=O)c1ccccc1C(=O)c2ccccc2,water,298,-3.309901395,mol/L
Cc1cccc(c1C)[N+]([O-])=O,water,298,-3.111265387,mol/L
S=C1Nc2ccccc2S1,water,298,-3.155201038,mol/L
O=C1CCN(N1)c2ccccc2,water,298,-1.144823301,mol/L
Cc1ccccc1CCl,water,298,-3.081326924,mol/L
CC(=C)c1ccccc1,water,298,-3.008082322,mol/L
COc1cc(CC=C)ccc1O,water,298,-2.153177924,mol/L
O=C1NSc2ccccc12,water,298,-2.11769376,mol/L
[K].CCCCCCCCCCCCCCCCCC.O[P](O)(O)=O,water,298,-3.529803064,mol/L
COc1ccc(cc1N)[N+]([O-])=O,water,298,-3.165004197,mol/L
[K+].O[Si]([O-])=O,water,298,-3.004467174,mol/L
O.O.O.O.O.[Na+].[Na+].[O-][Si]([O-])=O,water,298,-3.26592063,mol/L
Fc1cccc(F)c1,water,298,-2.000357955,mol/L
CCCCCCCCN1CCCC1=O,water,298,-2.238270657,mol/L
[Cd++].[O-]C([O-])=O,water,298,-2.179682789,mol/L
CC\C=C/CCOC(=O)C(C)C,water,298,-3.174187371,mol/L
Cc1cc(C)c(c(C)c1Nc2ccc(Nc3c(C)cc(C)c(c3C)[S](O)(=O)=O)c4C(=O)c5ccccc5C(=O)c24)[S](O)(=O)=O.NCCCCCCN,water,298,-2.820609377,mol/L
CCN(CC)CC,water,298,0.04561584,mol/L
CC1C(C)(C)C2=C(C(=O)CCC2)C1(C)C,water,298,-3.265342251,mol/L
O=C1NSc2ccccc12,water,298,-2.133027903,mol/L
[Na+].CCCCCCCCCCCC(=O)N[C@@H](CCC(O)=O)C([O-])=O,water,298,-2.500424016,mol/L
CC(C)(c1ccc(OCCO)cc1)c2ccc(OCCO)cc2,water,298,-3.451790553,mol/L
CC(C)NC(C)C,water,298,0.036242214,mol/L
CCCCCCN,water,298,-1.963453886,mol/L
C[C@@H]1O[C@@H](O[C@@H]2[C@@H](O)[C@H](O)[C@@H](CO)O[C@H]2Oc3cc(O)c4C(=O)C[C@H](Oc4c3)c5ccc(O)cc5)[C@H](O)[C@H](O)[C@H]1O,water,298,-2.722438715,mol/L
[Sn++].[O-]C(=O)C([O-])=O,water,298,-2.274008719,mol/L
[Mg++].[O-]C([O-])=O,water,298,-2.884501857,mol/L
CCC(C)c1ccccc1,water,298,-4.055941699,mol/L
CC(C)COC(=O)c1ccccc1C(=O)OCC(C)C,water,298,-4.383890265,mol/L
CC(CCNC(=O)OCCOC(=O)C(C)=C)CC(C)(C)CNC(=O)OCCOC(=O)C(C)=C,water,298,-4.619923834,mol/L
ClC(Cl)c1ccccc1,water,298,-4.157691467,mol/L
CCCCOC(=O)c1ccccc1C(=O)OCCCC,water,298,-4.395370083,mol/L
CCC(CC)CC1(CCCCC1)C(O)=O,water,298,-4.281694517,mol/L
CCCCOC(=O)\C=C\C(=O)OCCCC,water,298,-4.313551537,mol/L
CC1(C)C2CCC(=C)C1C2,water,298,-4.091722747,mol/L
Cc1cc(C)c(c(C)c1)C(=O)[P](=O)(c2ccccc2)c3ccccc3,water,298,-4.500663023,mol/L
CCCCCCCCCCCCCCCCN(C)C,water,298,-4.389193479,mol/L
[Ca++].[O-][Si]([O-])=O,water,298,-4.023667657,mol/L
O[S](=O)(=O)c1ccc2nc([nH]c2c1)c3ccccc3,water,298,-3.400800893,mol/L
CC(=C)C(=O)OCCOC(=O)C(C)=C,water,298,-2.261313265,mol/L
O=C1NSc2ccccc12,water,298,-2.144093329,mol/L
O=C/C=C/c1ccccc1,water,298,-2.08607732,mol/L
[Cl-].C[NH3+],water,298,-1.796002246,mol/L
CC(CCl)O[P](=O)(OC(C)CCl)OC(C)CCl,water,298,-2.481883017,mol/L
Cc1cccc(C)c1C.C2Cc3ccccc3C2.C4C=Cc5ccccc45,water,298,-3.51623781,mol/L
CC/C=C/CC/C=C/C=C,water,298,-3.100874504,mol/L
Oc1ccc(cc1)C(=O)OCc2ccccc2,water,298,-3.324981323,mol/L
CCCCCCCCO,water,298,-3.085330598,mol/L
N#C/C=C/c1ccccc1,water,298,-2.082970342,mol/L
Nc1cccc(c1)[S](=O)(=O)CCO[S](O)(=O)=O,water,298,-1.423880849,mol/L
CC(=O)/C=C/C1C(=CCCC1(C)C)C,water,298,-3.258677936,mol/L
CCCCCCCCCCO,water,298,-3.174133895,mol/L
CCOC=O,water,298,0.151494188,mol/L
Nc1cc(ccc1C(O)=O)[S](O)(=O)=O,water,298,-1.315674521,mol/L
NCCc1ccc(O)cc1,water,298,-1.116107831,mol/L
[Na+].CN(C1CCCCC1)[S](=O)(=O)c2ccccc2NNC3=C4C(=O)C=C(C=C4C=CC3=N)[S]([O-])(=O)=O,water,298,-2.711685939,mol/L
CCCCOCCOC(=O)c1ccccc1,water,298,-3.322422536,mol/L
COc1cc(ccc1N)[N+]([O-])=O,water,298,-3.204512738,mol/L
S=[Zn],water,298,-2.967623739,mol/L
OC(=O)CN(CCCN(CC(O)=O)CC(O)=O)CC(O)=O,water,298,-1.469072537,mol/L
Oc1cc(F)c(F)c(F)c1,water,298,-0.153609692,mol/L
CCCCCC(O)=O,water,298,-1.052219379,mol/L
CCCCOC(=O)CC(O)(CC(=O)OCCCC)C(=O)OCCCC,water,298,-3.545270972,mol/L
CC1C=C(C)CCC1COC(C)=O,water,298,-3.250398558,mol/L
CCCCC(CC)COC(=O)CC#N,water,298,-3.286478485,mol/L
[Pb++].[O-][S]([O-])(=O)=O.O=[Pb].O=[Pb].O=[Pb],water,298,-3.979450176,mol/L
CC1(C)S[C@@H]2[C@H](NC(=O)[C@H](N)c3ccccc3)C(=O)N2[C@H]1C(O)=O,water,298,-1.539016442,mol/L
Nc1ccc(Cc2ccc(N)cc2)cc1,water,298,-2.292933442,mol/L
CCOc1ccc2NC(C)(C)C=C(C)c2c1,water,298,-3.332762335,mol/L
CCCCOCCOC(=O)CCCCC(=O)OCCOCCCC,water,298,-3.535336741,mol/L
CCCCCCCCC=O,water,298,-3.148706476,mol/L
Cc1cccc(C)c1OCC(O)=O,water,298,-1.253311704,mol/L
Cc1cccc(C)c1OCC(O)=O,water,298,-1.253727344,mol/L
NCc1occc1,water,298,1.012704742,mol/L
OCC(F)(F)F,water,298,0.999830658,mol/L
C[Si]1O[Si](C)O[Si](C)O[Si](C)O[Si](C)O1,water,298,0.52929557,mol/L
CCOCCOCCOC(C)=O,water,298,0.75396452,mol/L
CO[Si](CCCOC(=O)C(C)=C)(OC)OC,water,298,0.604934087,mol/L
Oc1ccc(Cl)c(O)c1,water,298,0.839960873,mol/L
CC(=C)O[Si](OC(C)=C)(OC(C)=C)C=C,water,298,0.645223339,mol/L
CC#N,water,298,1.386655101,mol/L
OCCCCO,water,298,1.045169179,mol/L
C[Si]1(C)O[Si](C)(C)O[Si](C)(C)O1,water,298,0.652738306,mol/L
[Cl-].C[NH3+],water,298,1.170573999,mol/L
[K+].OC(=O)c1ccccc1C([O-])=O,water,298,0.689897475,mol/L
OCC(O)CO,water,298,1.035768664,mol/L
[Na+].Oc1ccccc1C([O-])=O,water,298,0.795597818,mol/L
[Br-].CC[N+](CC)(CC)CC,water,298,0.677452007,mol/L
[Cl-].CC[N+](CC)(CC)CC,water,298,0.780656524,mol/L
[K+].C[Si](O)(O)[O-],water,298,0.878663433,mol/L
CC/C(C)=N/O[Si@](C)(O\N=C(C)\CC)O\N=C(C)\CC,water,298,-0.479234017,mol/L
OO,water,298,0.468342293,mol/L
[Na+].[Na+].CC1=CC(/C=C(C1=N)[S]([O-])(=O)=O)=C(/c2ccc(N)c(c2)[S](O)(=O)=O)c3ccc(N)c(c3)[S]([O-])(=O)=O,water,298,-1.767563244,mol/L
Cc1ccc(C(O)=O)c(O)c1,water,298,-1.182269102,mol/L
o1cccc1,water,298,-0.83298765,mol/L
CC(O)c1ccccc1,water,298,-2.086953909,mol/L
OC(=O)c1cc(ccc1O)[N+]([O-])=O,water,298,-2.262733408,mol/L
Nc1ccc(Cc2ccc(N)cc2)cc1,water,298,-2.297254816,mol/L
CCCCCCCCCO,water,298,-2.159139907,mol/L
CCCCCCCCCCCCCNCCCCCCCCCCCCC.CCCCCCCCCCCCCNCC(C)CCCCCCCCCC,water,298,-3.882789701,mol/L
CC(C)=CCC\C(C)=C\CO,water,298,-3.188233619,mol/L
Cc1ccc(cc1C)[N+]([O-])=O,water,298,-3.179451248,mol/L
ClCc1ccccc1Cl,water,298,-3.20690949,mol/L
N#CCc1ccccc1,water,298,-3.068746,mol/L
CC(CC=O)CC(C)(C)C,water,298,-3.15302785,mol/L
Cc1cc(Cc2cc(C)c(O)c(C)c2)cc(C)c1O,water,298,-3.408824851,mol/L
CC(C)(C)c1ccc(C=O)cc1,water,298,-3.210136522,mol/L
Oc1ccc(cc1)C(=O)OCc2ccccc2,water,298,-3.358405078,mol/L
CCC(=O)OCc1ccccc1,water,298,-3.215383732,mol/L
CC(=C)c1ccccc1,water,298,-3.072540311,mol/L
[Na].CCCCCCCCCCCCO[S](=O)(=O)c1ccccc1,water,298,-3.543437239,mol/L
CCCCCCCCCCCCCO,water,298,-3.301824028,mol/L
[Bi+3].OC(CC([O-])=O)(CC([O-])=O)C([O-])=O,water,298,-4.55976264,mol/L
Nc1nc(N)nc(Nc2nc(N)nc(N)n2)n1,water,298,-4.332447692,mol/L
CCOC(=O)OC1CCCCC1C(C)(C)C,water,298,-4.321140283,mol/L
[H+].[Cl-].CN(C)C(=O)C(CCN1CCC(O)(CC1)c2ccc(Cl)cc2)(c3ccccc3)c4ccccc4,water,298,-4.673121562,mol/L
CCCCCC(=O)OC(=O)CCCCC,water,298,-4.296805043,mol/L
Oc1cc(Cl)ccc1Oc2ccc(Cl)cc2Cl,water,298,-4.428292314,mol/L
CN(C)Cc1cc(c(O)c(c1)C(C)(C)C)C(C)(C)C,water,298,-4.391273211,mol/L
CCCCCCCCCC(C)=O,water,298,-4.20182067,mol/L
CC(C)(C)OOC(C)(C)c1ccccc1,water,298,-4.29093415,mol/L
CCCCCCCCCC(=O)OC,water,298,-4.244076682,mol/L
CC(C)CCCCCOC(=O)CS,water,298,-4.285036897,mol/L
C=CCCCCC=C,water,298,-4.02327315,mol/L
[Ni++].[O-]C(=O)C([O-])=O,water,298,-4.153625453,mol/L
OC(=O)CCCCCCCCCCCC(O)=O,water,298,-4.38151253,mol/L
CCC(C)c1ccccc1,water,298,-4.123502332,mol/L
CCCCOC(=O)c1ccccc1C(=O)OCCCC,water,298,-4.444588105,mol/L
CC(=O)O[C@@H]1CCCC[C@@H]1C(C)(C)C,water,298,-4.297335855,mol/L
Oc1cc(Cl)ccc1Oc2ccc(Cl)cc2Cl,water,298,-4.46171607,mol/L
Oc1cc(Cl)ccc1Oc2ccc(Cl)cc2,water,298,-4.406710459,mol/L
CCCCCCCCCCCCCCCCCC(=O)NCCCN(C)C,water,298,-4.566614238,mol/L
C1CCCCCCCCCCC1,water,298,-4.226146043,mol/L
[Na+].O[S](=O)(=O)c1ccc(cc1)N=Nc2ccc(N\N=C3/C(=O)C=Cc4ccccc34)cc2,water,298,-4.65844166,mol/L
CC1COCc2cc3c(cc12)C(C)(C)C(C)C3(C)C,water,298,-5.113447836,mol/L
[OH-].[OH-].[Mg++],water,298,-4.469144878,mol/L
[Mg++].C[O-].C[O-],water,298,-4.639712814,mol/L
CC1=CCC2CC1C2(C)C.CC3(C)OC4(C)CCC3CC4.CC5(C)C6CCC(C6)C5=C.CC7(C)C8CCC7(C)C(=O)C8,water,298,-5.468186834,mol/L
CC(=C)C1CCC(=CC1)C.CC2=CCC3CC2C3(C)C.CC45CCC(CC4)C(C)(C)O5,water,298,-5.335685932,mol/L
CC1=CCC2CC1C2(C)C.CC3(C)OC4(C)CCC3CC4.CC5(C)C6CCC(C6)C5=C.CC7(C)C8CCC7(C)C(=O)C8,water,298,-5.472618449,mol/L
CCC(=O)/C=C/C1=C(C)CCCC1(C)C,water,298,-5.029002964,mol/L
CCCCCCCCCCCCO,water,298,-4.984746452,mol/L
[Cu+].[S-]C#N,water,298,-4.80401091,mol/L
CCC(Cc1ccc(C)cc1)(N(C)C)C(=O)c2ccc(cc2)N3CCOCC3,water,298,-5.301637583,mol/L
Nc1ccc(O[P](=S)(Oc2ccc(N)cc2)Oc3ccc(N)cc3)cc1,water,298,-5.309407137,mol/L
O=[P](Oc1ccccc1)(Oc2ccccc2)Oc3ccccc3,water,298,-5.234847501,mol/L
CC(=C)C(=O)OCCOc1ccc(cc1)C(C)(C)c2ccc(OCCOC(=O)C(C)=C)cc2,water,298,-5.379201886,mol/L
CC1(C)CCC[C@@]2(C)[C@H]1CC[C@@]3(C)OCC[C@H]23,water,298,-5.099487786,mol/L
CC1(C)CCCC2(C)C1CCC3(C)OCCC23,water,298,-5.099487786,mol/L
CCCCC\C(=C/c1ccccc1)C(OCC)OCC,water,298,-5.172056518,mol/L
[O--].[O--].[O--].[Sb+3].[Sb+3],water,298,-5.195150942,mol/L
[La+3].[La+3].[O-]C([O-])=O.[O-]C([O-])=O.[O-]C([O-])=O,water,298,-5.395892116,mol/L
[La+3].[La+3].[O-]C([O-])=O.[O-]C([O-])=O.[O-]C([O-])=O,water,298,-5.403031364,mol/L
CCCCC(CC)COC(=O)CS[Sn](C)(SCC(=O)OCC(CC)CCCC)SCC(=O)OCC(CC)CCCC,water,298,-5.616141043,mol/L
[nH]1c2ccccc2c3ccccc13,water,298,-4.967992339,mol/L
CC(=O)CC(=O)Nc1ccc(cc1C)c2ccc(NC(=O)CC(C)=O)c(C)c2,water,298,-5.325018234,mol/L
CC(=O)Nc1ccc(NC(=O)c2cc3ccccc3cc2O)cc1,water,298,-5.250349512,mol/L
Cc1ccc(Cl)cc1NC(=O)c2cc3ccccc3cc2O,water,298,-5.238559032,mol/L
[OH-].[OH-].[OH-].[Nd+3],water,298,-5.035343004,mol/L
[OH-].[OH-].[Mg++],water,298,-4.515390066,mol/L
[Mg++].C[O-].C[O-],water,298,-4.685958002,mol/L
CC(C)(C)NSc1sc2ccccc2n1,water,298,-5.136722389,mol/L
[Te],water,298,-4.875401753,mol/L
CC1COCc2cc3c(cc12)C(C)(C)C(C)C3(C)C,water,298,-5.184414208,mol/L
[Ba++].Cc1cc(N\N=C\2C(=O)C=Cc3ccccc23)c(cc1Cl)[S]([O-])(=O)=O.Cc4cc(N\N=C\5C(=O)C=Cc6ccccc56)c(cc4Cl)[S]([O-])(=O)=O,water,298,-5.7287712,mol/L
CC1COCc2cc3c(cc12)C(C)(C)C(C)C3(C)C,water,298,-5.194816969,mol/L
CCCC(=O)OCCC(C)CCC=C(C)C,water,298,-5.142612081,mol/L
COc1ccc(cc1)C(=O)CSc2cccc(OC)c2,water,298,-5.252043535,mol/L
CCCCC(CC)COC(=O)C(C)=C,water,298,-5.093215872,mol/L
COc1ccc(NC(=O)c2cc3ccccc3cc2O)cc1,water,298,-5.263224655,mol/L
CC(c1ccc(OC#N)cc1)c2ccc(OC#N)cc2,water,298,-5.217950889,mol/L
[Ca++].CCCCCCC(O)CCCCCCCCCCC([O-])=O.CCCCCCC(O)CCCCCCCCCCC([O-])=O,water,298,-5.601399905,mol/L
CCCCCCCC[Sn](Cl)(Cl)CCCCCCCC,water,298,-5.415041201,mol/L
[O--].[O--].[O--].[Dy+3].[Dy+3],water,298,-5.367585356,mol/L
CCCCCCCCCCCC=O,water,298,-5.061459548,mol/L
C[Si]1(C)O[Si](C)(C)O[Si](C)(C)O1,water,298,-5.143141711,mol/L
CC(=C)CC(C)(C)C.N(c1ccccc1)c2ccccc2,water,298,-5.245270469,mol/L
[OH-].[OH-].[Mg++],water,298,-4.564412944,mol/L
[Mg++].C[O-].C[O-],water,298,-4.73498088,mol/L
CCC1(C)Nc2cccc3cccc(N1)c23,water,298,-3.247760565,mol/L
COc1ccc(cc1)C(=O)CSc2cccc(OC)c2,water,298,-5.26710095,mol/L
[O--].[O--].[O--].[Sb+3].[Sb+3],water,298,-5.277143165,mol/L
CCCCC(CC)C(=O)OCCOCCOCCOC(=O)C(CC)CCCC,water,298,-5.420152134,mol/L
CC(=C)c1ccc(cc1)C(=O)C(C)(C)O.CC(C)(O)C(=O)c2ccc(cc2)C3(C)CC(C)(C)c4cc(ccc34)C(=O)C(C)(C)O.CC(C)(O)C(=O)c5ccc(cc5)C6(C)CC(C)(C)c7ccc(cc67)C(=O)C(C)(C)O,water,298,-5.827328879,mol/L
C[C@]12CC[C@H]3[C@@H](CCc4cc(O)ccc34)[C@@H]1CC[C@@H]2O,water,298,-5.259096712,mol/L
Nc1c(ccc2C(=O)c3ccccc3C(=O)c12)c4oc5cc6C(=O)c7ccccc7C(=O)c6cc5n4,water,298,-5.496412982,mol/L
CCOc1ccc(NC(=O)c2cc3ccccc3cc2O)cc1,water,298,-5.311540545,mol/L
COc1cc(OC)c(NC(=O)c2cc3ccccc3cc2O)cc1Cl,water,298,-5.377540581,mol/L
O=C(Nc1cccc2C(=O)c3c4[nH]c5c(cc(NC(=O)c6ccccc6)c7C(=O)c8ccccc8C(=O)c57)c4ccc3C(=O)c12)c9ccccc9,water,298,-5.647161854,mol/L
COc1ccc(cc1)C(=O)CSc2cccc(OC)c2,water,298,-5.284725265,mol/L
COc1ccc(cc1)C(=O)CSc2cccc(OC)c2,water,298,-5.293516952,mol/L
C1CCC2CCCCC2C1,water,298,-4.991458593,mol/L
O=C1c2ccccc2C(=O)c3c4Nc5ccc6c7ccccc7C(=O)c8ccc(c4ccc13)c5c68,water,298,-5.506567843,mol/L
CC1(C)CO[P](=S)(OC1)O[P]2(=S)OCC(C)(C)CO2,water,298,-5.393383395,mol/L
CC(C)C1CCC(=CC1)C,water,298,-5.010343937,mol/L
OC(=O)CCCCCNc1nc(NCCCCCC(O)=O)nc(NCCCCCC(O)=O)n1,water,298,-2.542361308,mol/L
CC(C)CCCCCCCOC(=O)C=C,water,298,-5.199912698,mol/L
[Pr+3].[Pr+3].[O-]C([O-])=O.[O-]C([O-])=O.[O-]C([O-])=O,water,298,-5.537386746,mol/L
CCCCCCCCCC(C)C=O,water,298,-5.151636178,mol/L
CN(C)c1ccc(cc1)C(c2ccc(cc2)N(C)C)c3ccc(cc3)N(C)C,water,298,-5.458398413,mol/L
[Gd+3].[Gd+3].[O-]C(=O)C([O-])=O.[O-]C(=O)C([O-])=O.[O-]C(=O)C([O-])=O,water,298,-5.648400548,mol/L
CCCCCCCCCCCCCCO,water,298,-5.217267249,mol/L
[Y],water,298,-4.834987719,mol/L
O=C1c2cccc(Sc3ccccc3)c2C(=O)c4c(Sc5ccccc5)cccc14,water,298,-5.517335043,mol/L
[O--].[O--].[O--].[O--].[O--].[O--].[O--].[O--].[O--].[O--].[O--].[Pr+3].[Pr+3].[Pr+3].[Pr+3].[Pr+3].[Pr+3],water,298,-5.905407865,mol/L
CC(C)(c1cc(Br)c(O)c(Br)c1)c2cc(Br)c(O)c(Br)c2,water,298,-5.635128551,mol/L
Cc1cc(ccc1O)C2(CCCCC2)c3ccc(O)c(C)c3,water,298,-5.371522306,mol/L
[La+3].[La+3].[O-]C([O-])=O.[O-]C([O-])=O.[O-]C([O-])=O,water,298,-5.560339394,mol/L