Solute,Solvent,Temperature_K,Solubility,Units
CCCCCCC=C,water,298,-4.4373,mol/L
CC(C)=C,water,298,-2.3291,mol/L
CCCCCCCC=C,water,298,-5.052,mol/L
C1C=CC=CC=C1,water,298,-2.1721,mol/L
C\C=C/C,water,298,-1.9302,mol/L
C=CCC=C,water,298,-2.0866,mol/L
CCCCC=C,water,298,-3.2261,mol/L
C=CCCC=C,water,298,-2.6867,mol/L
CCCCCC=C,water,298,-3.732,mol/L
C\C=C\C,water,298,-2.0406,mol/L
C1C=CCC=C1,water,298,-2.0587,mol/L
Cc1c[nH]c2ccccc12,water,298,-2.4206,mol/L
N1c2ccccc2Sc3ccccc13,water,298,-5.0981,mol/L
[nH]1nc2ccccc2n1,water,298,-0.7794,mol/L
s1ccc2ccccc12,water,298,-3.0138,mol/L
s1cnc2ccccc12,water,298,-1.4975,mol/L
[nH]1cccc1,water,298,-0.1734,mol/L
o1cccc1,water,298,-0.833,mol/L
s1cccc1,water,298,-1.4464,mol/L
[nH]1ccc2ccccc12,water,298,-1.5173,mol/L
S=C1Nc2ccccc2S1,water,298,-3.182,mol/L
[nH]1ncc2ccccc12,water,298,-2.1554,mol/L
o1cnc2ccccc12,water,298,-1.1548,mol/L
C1Cc2ccccc2C1,water,298,-3.0351,mol/L
Cc1occc1,water,298,-1.4372,mol/L
COCc1oc(cc1)[N+]([O-])=O,water,298,-1.1548,mol/L
Cc1[nH]c2ccccc2n1,water,298,-1.9598,mol/L
CSc1sc2ccccc2n1,water,298,-3.1614,mol/L
Cc1cscc1,water,298,-2.3899,mol/L
CCc1sccc1,water,298,-2.5846,mol/L
NC(N)=S,water,298,0.2708,mol/L
S=C1NCCN1,water,298,-0.7083,mol/L
ClC(Cl)=C,water,298,-1.6343,mol/L
FC(F)=C,water,298,-0.7061,mol/L
ClC1=C(Cl)C(Cl)(Cl)C(=C1Cl)Cl,water,298,-5.1805,mol/L
ClC=C(Cl)Cl,water,298,-2.0772,mol/L
ClC(Cl)=C(Cl)C(Cl)=C(Cl)Cl,water,298,-4.9111,mol/L
BrCC=C,water,298,-1.4995,mol/L
ClC(Cl)=C(Cl)Cl,water,298,-2.9186,mol/L
Cl\C=C/Cl,water,298,-1.4424,mol/L
Cl\C=C\Cl,water,298,-1.1872,mol/L
Cl\C=C\Cl,water,298,-1.4424,mol/L
BrCCC=C,water,298,-2.2473,mol/L
Br\C=C/Br,water,298,-1.3193,mol/L
[O-][N+](=O)c1cccc2ccccc12,water,298,-4.2756,mol/L
Cc1cccc2ccccc12,water,298,-3.7413,mol/L
Clc1cccc2ccccc12,water,298,-3.9706,mol/L
Oc1cccc2ccccc12,water,298,-2.2214,mol/L
c1ccc2ccccc2c1,water,298,-3.6165,mol/L
Cc1ccc2ccccc2c1,water,298,-3.762,mol/L
Clc1ccc2ccccc2c1,water,298,-4.143,mol/L
Nc1cccc2ccccc12,water,298,-1.9255,mol/L
Oc1ccc2ccccc2c1,water,298,-2.2809,mol/L
S=C=Nc1cccc2ccccc12,water,298,-4.6022,mol/L
Cc1ccc(C)c2ccccc12,water,298,-4.1369,mol/L
Cc1cccc2c(C)cccc12,water,298,-4.756,mol/L
Cc1cc(C)c2ccccc2c1,water,298,-4.2907,mol/L
Cc1cc2ccccc2cc1C,water,298,-4.8949,mol/L
Cc1ccc2cc(C)ccc2c1,water,298,-4.8927,mol/L
[O-][N+](=O)c1ccc2ccccc2c1,water,298,-4.2728,mol/L
Cc1ccc2cc(C)c(C)cc2c1,water,298,-5.0007,mol/L
CCc1ccc2ccccc2c1,water,298,-4.2901,mol/L
CCc1cccc2ccccc12,water,298,-4.1644,mol/L
Cc1ccc(C)c2c(C)cccc12,water,298,-4.9089,mol/L
OCc1cccc2ccccc12,water,298,-1.7444,mol/L
o1c2ccccc2c3ccccc13,water,298,-4.7345,mol/L
O1c2ccccc2Oc3ccccc13,water,298,-5.3106,mol/L
Clc1cccc2Oc3ccccc3Oc12,water,298,-5.7196,mol/L
Clc1ccc2Oc3ccccc3Oc2c1,water,298,-5.8359,mol/L
Cc1ccccc1[N+]([O-])=O,water,298,-2.3243,mol/L
COc1ccccc1[N+]([O-])=O,water,298,-1.9572,mol/L
[O-][N+](=O)c1ccccc1,water,298,-1.7701,mol/L
Cc1cccc(c1)[N+]([O-])=O,water,298,-2.4382,mol/L
[O-][N+](=O)c1cc(cc(c1)[N+]([O-])=O)[N+]([O-])=O,water,298,-2.8846,mol/L
[O-][N+](=O)c1cccc(c1)[N+]([O-])=O,water,298,-2.4989,mol/L
Cc1ccc(cc1)[N+]([O-])=O,water,298,-2.4917,mol/L
COc1ccc(cc1)[N+]([O-])=O,water,298,-2.4142,mol/L
[O-][N+](=O)c1ccc(cc1)[N+]([O-])=O,water,298,-3.3867,mol/L
Cc1c(cc(cc1[N+]([O-])=O)[N+]([O-])=O)[N+]([O-])=O,water,298,-3.2423,mol/L
Cc1ccc(cc1[N+]([O-])=O)[N+]([O-])=O,water,298,-2.829,mol/L
[O-][N+](=O)c1ccccc1[N+]([O-])=O,water,298,-3.1017,mol/L
COc1cccc(c1)[N+]([O-])=O,water,298,-2.4861,mol/L
Cc1c(cccc1[N+]([O-])=O)[N+]([O-])=O,water,298,-3.0003,mol/L
Cc1ccc(c(c1)[N+]([O-])=O)[N+]([O-])=O,water,298,-3.2604,mol/L
CCOC(N)=O,water,298,0.7314,mol/L
NC(=O)C=C,water,298,0.9544,mol/L
O=C1CCCCCN1,water,298,0.8339,mol/L
CCCC(N)=O,water,298,0.2721,mol/L
C[N+]([O-])=O,water,298,0.2597,mol/L
CC[N+]([O-])=O,water,298,-0.2034,mol/L
CCC[N+]([O-])=O,water,298,-0.7737,mol/L
OC(CO[N+]([O-])=O)CO[N+]([O-])=O,water,298,-0.366,mol/L
CCCC[N+]([O-])=O,water,298,-1.3506,mol/L
CCCCC[N+]([O-])=O,water,298,-1.9548,mol/L
[O-][N+](=O)OCCO[N+]([O-])=O,water,298,-1.3495,mol/L
CCCC#C,water,298,-1.6374,mol/L
CCOCC,water,298,-0.0889,mol/L
CC(C)OC(C)C,water,298,-1.0649,mol/L
CCCOCCC,water,298,-1.3192,mol/L
ClCCOCCCl,water,298,-0.9198,mol/L
CCCCCCOCCO,water,298,-1.1694,mol/L
CCCCOCCOCCCC,water,298,-1.9402,mol/L
CCCCOCCOCCOCCCC,water,298,-1.862,mol/L
COC,water,298,0.8844,mol/L
C1CCOCC1,water,298,-0.031,mol/L
CCCCOCCCC,water,298,-2.6376,mol/L
CCOCCOCC,water,298,-0.1498,mol/L
COC(C)(C)C,water,298,-0.2377,mol/L
FC(F)OC(F)(F)C(F)Cl,water,298,-1.5162,mol/L
FC(F)OC(Cl)C(F)(F)F,water,298,-1.6157,mol/L
CCN(CC)N=O,water,298,0.0161,mol/L
O=NN(c1ccccc1)c2ccccc2,water,298,-3.7531,mol/L
Oc1ccc2ccccc2c1N=O,water,298,-2.2385,mol/L
Oc1c(ccc2ccccc12)N=O,water,298,-2.5395,mol/L
CC(C)N(N=O)C(C)C,water,298,-1.0006,mol/L
CCCN(CCC)N=O,water,298,-1.0006,mol/L
CCCCN(CCCC)N=O,water,298,-2.0955,mol/L
CCCCN(CC)N=O,water,298,-1.0354,mol/L
CCCCN(C)N=O,water,298,-0.6996,mol/L
CCN(C)N=O,water,298,0.5321,mol/L
c1ccc(cc1)c2ccccc2,water,298,-4.3468,mol/L
Brc1ccc(cc1)c2ccccc2,water,298,-5.5526,mol/L
Cc1ccc(cc1)c2ccccc2,water,298,-4.6185,mol/L
Clc1cccc(c1)c2cccc(Cl)c2,water,298,-5.7983,mol/L
Clc1ccc(cc1)c2ccc(Cl)cc2,water,298,-6.5561,mol/L
Clc1c(Cl)c(Cl)c(c(Cl)c1Cl)c2c(Cl)c(Cl)c(Cl)c(Cl)c2Cl,water,298,-10.8268,mol/L
Clc1ccccc1c2ccccc2,water,298,-4.5917,mol/L
Clc1cccc(c1)c2ccccc2,water,298,-4.7158,mol/L
Clc1ccc(cc1)c2ccccc2,water,298,-5.1486,mol/L
Clc1cc(Cl)c(Cl)c(c1Cl)c2c(Cl)c(Cl)cc(Cl)c2Cl,water,298,-9.4659,mol/L
Clc1ccc(c(Cl)c1)c2ccc(Cl)cc2Cl,water,298,-6.7322,mol/L
Clc1ccc(cc1Cl)c2ccccc2,water,298,-6.3899,mol/L
Clc1ccc(cc1)c2ccc(Cl)cc2Cl,water,298,-5.9795,mol/L
Clc1ccccc1c2ccccc2Cl,water,298,-5.0813,mol/L
Clc1cc(Cl)c(cc1Cl)c2ccccc2,water,298,-6.1987,mol/L
Clc1cccc(Cl)c1c2c(Cl)cccc2Cl,water,298,-7.3898,mol/L
Clc1cccc(c2ccccc2)c1Cl,water,298,-5.3498,mol/L
Clc1ccc(cc1)c2cc(Cl)ccc2Cl,water,298,-6.2555,mol/L
Clc1c(Cl)c(Cl)c(c2ccccc2)c(Cl)c1Cl,water,298,-7.9107,mol/L
Clc1cccc(c1)c2ccccc2Cl,water,298,-5.5851,mol/L
Clc1ccc(cc1Cl)c2cc(Cl)c(Cl)cc2Cl,water,298,-7.3867,mol/L
Clc1ccc(c(Cl)c1)c2ccc(Cl)c(Cl)c2,water,298,-6.8995,mol/L
Clc1ccc(Cl)c(c1)c2ccc(Cl)c(Cl)c2,water,298,-6.8526,mol/L
Clc1ccc(cc1)c2cc(Cl)c(Cl)cc2Cl,water,298,-7.7699,mol/L
Clc1ccc(cc1)c2ccc(Cl)c(Cl)c2Cl,water,298,-6.8754,mol/L
Clc1cccc(Cl)c1c2ccccc2,water,298,-4.9665,mol/L
Clc1ccc(c(Cl)c1)c2ccccc2,water,298,-5.2878,mol/L
Clc1cc(c2ccccc2)c(Cl)c(Cl)c1Cl,water,298,-7.3192,mol/L
Clc1cc(Cl)c(c(Cl)c1)c2c(Cl)cc(Cl)cc2Cl,water,298,-8.9467,mol/L
Clc1ccc(Cl)c(c1)c2ccccc2,water,298,-5.2993,mol/L
Clc1ccc(cc1)c2ccccc2Cl,water,298,-5.2803,mol/L
Clc1cc(Cl)c(cc1Cl)c2cc(Cl)c(Cl)cc2Cl,water,298,-8.5796,mol/L
Clc1ccc(c(Cl)c1Cl)c2cc(Cl)c(Cl)cc2Cl,water,298,-8.3813,mol/L
Clc1cc(Cl)c(c(Cl)c1)c2ccccc2,water,298,-6.0095,mol/L
Clc1ccc(Cl)c(c1)c2cc(Cl)ccc2Cl,water,298,-7.2807,mol/L
Clc1ccc(c(Cl)c1)c2cc(Cl)c(Cl)c(Cl)c2Cl,water,298,-8.5199,mol/L
Brc1ccc(c(Br)c1Br)c2ccc(Br)c(Br)c2Br,water,298,-7.7563,mol/L
Clc1ccc(Cl)c(c1)c2ccccc2Cl,water,298,-5.8088,mol/L
Clc1ccc(c(Cl)c1)c2ccccc2Cl,water,298,-6.4902,mol/L
Clc1ccc(Cl)c(c1)c2cc(Cl)c(Cl)cc2Cl,water,298,-7.3263,mol/L
Clc1ccc(Cl)c(c1)c2c(Cl)ccc(Cl)c2Cl,water,298,-7.1895,mol/L
Clc1ccc(c(Cl)c1)c2cc(Cl)c(Cl)cc2Cl,water,298,-7.9503,mol/L
Clc1ccc(Cl)c(c1)c2ccc(Cl)c(Cl)c2Cl,water,298,-7.0455,mol/L
Clc1ccc(cc1Cl)c2c(Cl)ccc(Cl)c2Cl,water,298,-7.6499,mol/L
Clc1ccc(c(Cl)c1Cl)c2ccc(Cl)c(Cl)c2Cl,water,298,-9.0133,mol/L
Clc1ccc(Cl)c(c1Cl)c2c(Cl)ccc(Cl)c2Cl,water,298,-7.9032,mol/L
Clc1ccccc1c2c(Cl)cccc2Cl,water,298,-5.9003,mol/L
Clc1ccc(cc1)c2c(Cl)cccc2Cl,water,298,-6.2095,mol/L
Clc1cccc(c1Cl)c2ccccc2Cl,water,298,-5.944,mol/L
Clc1cccc(c1)c2cc(Cl)ccc2Cl,water,298,-6.0077,mol/L
Clc1ccc(cc1)c2cccc(Cl)c2Cl,water,298,-6.2586,mol/L
Clc1ccc(cc1Cl)c2ccccc2Cl,water,298,-6.287,mol/L
Clc1ccc(cc1)c2ccc(Cl)c(Cl)c2,water,298,-6.5541,mol/L
Clc1cccc(c1Cl)c2cccc(Cl)c2Cl,water,298,-7.2722,mol/L
Clc1ccc(Cl)c(c1)c2cccc(Cl)c2Cl,water,298,-6.4654,mol/L
Clc1ccc(c(Cl)c1)c2cc(Cl)ccc2Cl,water,298,-6.5727,mol/L
Clc1cccc(c1Cl)c2cc(Cl)c(Cl)cc2Cl,water,298,-7.0605,mol/L
Clc1ccc(c(Cl)c1Cl)c2ccccc2Cl,water,298,-6.8299,mol/L
Clc1ccc(Cl)c(c1)c2cc(Cl)cc(Cl)c2Cl,water,298,-7.8201,mol/L
Clc1cc(Cl)c(Cl)c(c1)c2c(Cl)ccc(Cl)c2Cl,water,298,-7.8218,mol/L
Clc1cccc(c1Cl)c2cc(Cl)c(Cl)c(Cl)c2Cl,water,298,-8.4206,mol/L
NC(=O)c1ccccc1,water,298,-0.953,mol/L
CC1=CC(=O)c2ccccc2C1=O,water,298,-3.0319,mol/L
CCCCNC(=O)N[S](=O)(=O)c1ccc(C)cc1,water,298,-3.3945,mol/L
c1ccc(cc1)c2ccc(cc2)c3ccccc3,water,298,-7.107,mol/L
FC(F)(F)c1ccccc1,water,298,-3.0186,mol/L
ClCc1ccccc1,water,298,-2.3822,mol/L
COc1ccccc1,water,298,-2.017,mol/L
CSc1ccccc1,water,298,-2.39,mol/L
O(c1ccccc1)c2ccccc2,water,298,-3.9757,mol/L
O=CNc1ccccc1,water,298,-0.6785,mol/L
S=C=Nc1ccccc1,water,298,-3.1772,mol/L
CCOc1ccccc1,water,298,-2.3319,mol/L
CC(=O)Nc1ccccc1,water,298,-1.2901,mol/L
CC(=O)Nc1ccccc1Cl,water,298,-1.4001,mol/L
CC(=O)Nc1cccc(C)c1,water,298,-2.091,mol/L
CC(=O)Nc1ccccc1[N+]([O-])=O,water,298,-1.9093,mol/L
S=C=NCc1ccccc1,water,298,-3.1364,mol/L
Oc1ccc2CCCCc2c1,water,298,-1.9948,mol/L
NC(=O)c1c(Cl)cccc1Cl,water,298,-1.8427,mol/L
Cc1cccc(Oc2ccc(cc2)[N+]([O-])=O)c1,water,298,-4.6613,mol/L
CCNCNC(=O)c1ccccc1,water,298,-0.0749,mol/L
CNCC(C)c1ccccc1,water,298,-1.0947,mol/L
O=NN1CCCCC1,water,298,-0.1738,mol/L
c1ccc(cc1)N=Nc2ccccc2,water,298,-4.4544,mol/L
COC(=O)[C@H]1[C@H](CC2CCC1N2C)OC(=O)c3ccccc3,water,298,-2.2267,mol/L
CN(C)CCCN1c2ccccc2CCc3ccccc13,water,298,-4.187,mol/L
CN(C)CCCN1c2ccccc2Sc3ccc(Cl)cc13,water,298,-5.0971,mol/L
CN1C2CCC1CC(C2)OC(=O)C(CO)c3ccccc3,water,298,-2.119,mol/L
CCN(CC)CCOC(=O)c1ccc(N)cc1,water,298,-1.3979,mol/L
CCN(CC)CC(=O)Nc1c(C)cccc1C,water,298,-1.7571,mol/L
CCO[P](=O)(OCC)OCC,water,298,0.4385,mol/L
O=[P](Oc1ccccc1)(Oc2ccccc2)Oc3ccccc3,water,298,-5.2349,mol/L
CCCCO[P](=O)(OCCCC)OCCCC,water,298,-2.9782,mol/L
CO[P](=O)(OC)OC,water,298,0.5526,mol/L
CC(C)O[P](C)(=O)OC(C)C,water,298,-0.0516,mol/L
NC(N)=O,water,298,0.9578,mol/L
NC(=O)NCc1ccccc1,water,298,-0.9462,mol/L
Cc1ccc(cc1)[S](N)(=O)=O,water,298,-1.7344,mol/L
Cc1ccccc1[S](N)(=O)=O,water,298,-2.024,mol/L
N[S](=O)(=O)c1ccccc1,water,298,-1.563,mol/L
Cc1cccc(c1)[S](N)(=O)=O,water,298,-1.3409,mol/L
ClCCN(CCCl)[P]1(=O)NCCCO1,water,298,-0.8147,mol/L
Clc1ccc(cc1)C(c2ccc(Cl)cc2)C(Cl)(Cl)Cl,water,298,-7.8092,mol/L
CO[P](=S)(OC)Oc1ccc(SC)c(C)c1,water,298,-4.5695,mol/L
CCO[P](=S)(OCC)Oc1ccc(cc1)[N+]([O-])=O,water,298,-4.0841,mol/L
CNC(=O)CS[P](=S)(OC)OC,water,298,-0.9624,mol/L
CNC(=O)Oc1cccc2ccccc12,water,298,-3.3867,mol/L
ClC(Cl)C(c1ccc(Cl)cc1)c2ccc(Cl)cc2,water,298,-6.551,mol/L
Clc1ccc(cc1)C(=C(Cl)Cl)c2ccc(Cl)cc2,water,298,-6.9004,mol/L
CCCCS[P](=O)(SCCCC)SCCCC,water,298,-5.6343,mol/L
CC(Oc1ccc(Cl)cc1C)C(O)=O,water,298,-2.5393,mol/L
CC(Oc1cc(Cl)c(Cl)cc1Cl)C(O)=O,water,298,-3.5793,mol/L
OC(=O)COc1cc(Cl)c(Cl)cc1Cl,water,298,-2.9633,mol/L
OC(=O)COc1ccc(Cl)cc1Cl,water,298,-2.5139,mol/L
OC(=O)CCCOc1ccc(Cl)cc1Cl,water,298,-3.6721,mol/L
CCO[P](=S)(OCC)Oc1ccc(Cl)cc1Cl,water,298,-6.1094,mol/L
CC(C)OC(=O)Nc1cccc(Cl)c1,water,298,-3.3804,mol/L
CN(C)C(=O)Nc1ccccc1,water,298,-1.6101,mol/L
CC(CCl)OC(C)CCl,water,298,-2.0027,mol/L
OC(c1ccc(Cl)cc1)(c2ccc(Cl)cc2)C(Cl)(Cl)Cl,water,298,-5.6657,mol/L
CCO[P](=S)(OCC)Oc1ccc(cc1)[S](C)=O,water,298,-2.188,mol/L
CC(Oc1ccc(Cl)cc1Cl)C(O)=O,water,298,-2.8271,mol/L
CCOC(=O)CC(S[P](=S)(OC)OC)C(=O)OCC,water,298,-3.3637,mol/L
CO[P](=S)(OC)Oc1ccc(c(C)c1)[N+]([O-])=O,water,298,-3.8631,mol/L
CC(C)OC(=O)Nc1ccccc1,water,298,-3.0005,mol/L
CN(C)C(=O)Nc1ccc(Cl)cc1,water,298,-2.9364,mol/L
CO[P](=S)(OC)Oc1ccc(cc1)[N+]([O-])=O,water,298,-3.844,mol/L
CCO[P](=S)(OCC)SCSCC,water,298,-3.7166,mol/L
CCO[P](=S)(OCC)SCCSCC,water,298,-4.2262,mol/L
CO[P](=S)(OC)Oc1cc(Cl)c(Cl)cc1Cl,water,298,-5.5072,mol/L
CO[P](=S)(NC(C)C)Oc1ccc(Cl)cc1Cl,water,298,-4.7982,mol/L
CN[P](=O)(OC)Oc1ccc(cc1Cl)C(C)(C)C,water,298,-3.1639,mol/L
CO[P](=O)(OC)OC(Br)C(Cl)(Cl)Br,water,298,-2.2797,mol/L
CCO[P](=O)(OCC)Oc1ccc(cc1)[N+]([O-])=O,water,298,-2.0594,mol/L
CCO[P](=S)(CC)Oc1cc(Cl)c(Cl)cc1Cl,water,298,-5.7524,mol/L
CN(C)C(=O)Nc1ccc(Cl)c(Cl)c1,water,298,-3.7443,mol/L
CON(C)C(=O)Nc1ccc(Cl)c(Cl)c1,water,298,-3.5213,mol/L
CCO[P](=O)(OCC)OC(=C\Cl)/c1ccc(Cl)cc1Cl,water,298,-3.4624,mol/L
CO[P](=S)(OC)Oc1ccc(c(Cl)c1)[N+]([O-])=O,water,298,-3.8717,mol/L
CCCCN(C)C(=O)Nc1ccc(Cl)c(Cl)c1,water,298,-4.7584,mol/L
CCCCOC(N)=O,water,298,-0.6571,mol/L
COC(N)=O,water,298,0.964,mol/L
CCCOC(N)=O,water,298,-0.1302,mol/L
CCC(=O)Nc1ccc(Cl)c(Cl)c1,water,298,-2.9864,mol/L
CCCN(CCC)C(=O)SCC,water,298,-2.7032,mol/L
CCO[P](=S)(OCC)SCSc1ccc(Cl)cc1,water,298,-5.7358,mol/L
CO[P](=S)(OC)SCSc1ccc(Cl)cc1,water,298,-5.2939,mol/L
CNC(=O)Oc1cccc(C)c1,water,298,-1.803,mol/L
CON(C)C(=O)Nc1ccc(Cl)cc1,water,298,-2.3632,mol/L
Clc1c(Cl)c(C#N)c(Cl)c(C#N)c1Cl,water,298,-5.6466,mol/L
CCO[P](=S)(Oc1ccc(cc1)[N+]([O-])=O)c2ccccc2,water,298,-5.0169,mol/L
CO[P](=S)(OC)Oc1cc(Cl)c(Br)cc1Cl,water,298,-6.0864,mol/L
CN(C)C(=O)Nc1cccc(c1)C(F)(F)F,water,298,-3.4365,mol/L
CCSC(=O)N1CCCCCC1,water,298,-2.2858,mol/L
CCCC(C)C(=O)Nc1ccc(C)c(Cl)c1,water,298,-4.4503,mol/L
CNC(=O)Oc1ccc(C)c(C)c1,water,298,-2.1394,mol/L
CO[P](=S)(OC)Oc1ccc(cc1Cl)[N+]([O-])=O,water,298,-4.3064,mol/L
CNC(=O)Oc1cc(C)cc(c1)C(C)C,water,298,-3.3575,mol/L
CNC(=O)Oc1ccccc1C(C)C,water,298,-2.6841,mol/L
CO[P](=S)(OC)Oc1ccc(cc1)C#N,water,298,-3.7232,mol/L
CNC(=O)Oc1cc(C)cc(C)c1,water,298,-2.5813,mol/L
CON(C)C(=O)Nc1ccc(Br)cc1,water,298,-2.895,mol/L
COC(=O)N[S](=O)(=O)c1ccc(N)cc1,water,298,-1.6632,mol/L
CO[P](=S)(OC)Oc1ccc(Sc2ccc(O[P](=S)(OC)OC)cc2)cc1,water,298,-6.2375,mol/L
CC(C#C)N(C)C(=O)Nc1ccc(Cl)cc1,water,298,-3.8971,mol/L
CCC(C)c1ccccc1OC(=O)NC,water,298,-2.497,mol/L
CO[P]1(=S)OCc2ccccc2O1,water,298,-3.5714,mol/L
CCO[P](=S)(OCC)Oc1cc(Cl)c(Br)cc1Cl,water,298,-5.9521,mol/L
CCCC(C)(C)C(=O)Nc1ccc(Cl)cc1,water,298,-4.0218,mol/L
CCCO[P](=O)(OCCC)Oc1ccc(SC)cc1,water,298,-3.3865,mol/L
CCO[P](=S)(Oc1ccc(cc1)C#N)c2ccccc2,water,298,-5.7037,mol/L
CCO[P](=S)(OCC)SCSC(C)(C)C,water,298,-4.755,mol/L
CON(C)C(=O)Nc1ccc(Br)c(Cl)c1,water,298,-3.9236,mol/L
CN(C)C(=O)Nc1ccc(C)c(Cl)c1,water,298,-3.4826,mol/L
CCO[P](=O)(Sc1ccccc1)Sc2ccccc2,water,298,-3.3305,mol/L
CO[P](=S)(OC)Oc1cc(Cl)c(I)cc1Cl,water,298,-6.616,mol/L
COc1ccc(NC(=O)N(C)C)cc1Cl,water,298,-2.5811,mol/L
CO[P](=S)(Oc1cc(Cl)c(Br)cc1Cl)c2ccccc2,water,298,-7.1379,mol/L
CCO[P](=O)(NC(C)C)Oc1ccc(SC)c(C)c1,water,298,-2.9648,mol/L
CCCO[P](=S)(OCCC)SCC(=O)N1CCCCC1C,water,298,-4.1504,mol/L
CCO[P](=S)(NC(C)C)Oc1ccccc1C(=O)OC(C)C,water,298,-4.1939,mol/L
CC(C)O[P](=O)(OC(C)C)SCc1ccccc1,water,298,-2.8579,mol/L
CCN(CC)C(=O)SCc1ccc(Cl)cc1,water,298,-3.9641,mol/L
CO[P](=O)(NC(C)=O)SC,water,298,0.6499,mol/L
CC(C)c1ccc(NC(=O)N(C)C)cc1,water,298,-3.5363,mol/L
CCCS[P](=O)(OCC)Oc1ccc(Br)cc1Cl,water,298,-4.1253,mol/L
CC(C)C(C(=O)OC(C#N)c1cccc(Oc2ccccc2)c1)c3ccc(Cl)cc3,water,298,-7.2429,mol/L
CC1(C)C(C=C(Cl)Cl)C1C(=O)OC(C#N)c2cccc(Oc3ccccc3)c2,water,298,-8.0174,mol/L
CCCN,water,298,1.2283,mol/L
CCC(O)=O,water,298,1.1303,mol/L
CC=O,water,298,1.3561,mol/L
C1CCNCC1,water,298,1.0698,mol/L
CN(C)C(C)=O,water,298,1.0599,mol/L
CN(C)N=O,water,298,1.1303,mol/L
CS,water,298,-0.4947,mol/L
CCS,water,298,-0.9608,mol/L
[O-][n+]1ccccc1,water,298,1.0218,mol/L
CSSC,water,298,-1.4969,mol/L
CCSSCC,water,298,-2.6101,mol/L
Cc1cccnc1C,water,298,0.0938,mol/L
Cc1ccnc(C)c1,water,298,0.4471,mol/L
Cc1ccc(C)nc1,water,298,-0.03,mol/L
Cc1ccncc1C,water,298,-0.314,mol/L
Cc1cncc(C)c1,water,298,-0.5115,mol/L
C=Cc1ccccn1,water,298,-0.5824,mol/L
C=Cc1ccncc1,water,298,-0.5579,mol/L
c1ccc(nc1)c2ccccn2,water,298,-1.4206,mol/L
c1cc(ccn1)c2ccncc2,water,298,-1.5376,mol/L
c1cnc2c(c1)ccc3ncccc23,water,298,-2.6806,mol/L
c1ccc2nc3ccccc3cc2c1,water,298,-3.6691,mol/L
c1ccc2c(c1)ccc3ncccc23,water,298,-3.3574,mol/L
c1ccc2ncccc2c1,water,298,-1.3251,mol/L
c1ccc2cnccc2c1,water,298,-1.456,mol/L
c1ccc2nc(ccc2c1)c3ccc4ccccc4n3,water,298,-5.4002,mol/L
c1ccc2cnncc2c1,water,298,-0.4155,mol/L
CCO[P](=S)(OCC)Oc1cc(C)nc(n1)C(C)C,water,298,-3.8813,mol/L
CC(C)(c1ccc(O)cc1)c2ccc(O)cc2,water,298,-3.2793,mol/L
Oc1ccc(Cl)cc1Cc2cc(Cl)ccc2O,water,298,-3.9528,mol/L
Oc1cccc(O)c1,water,298,0.8137,mol/L
Oc1ccccc1O,water,298,0.6219,mol/L
CCCCCCc1ccc(O)cc1O,water,298,-2.5895,mol/L
Oc1ccc(O)cc1,water,298,-0.1845,mol/L
CC\C(c1ccc(O)cc1)=C(\CC)c2ccc(O)cc2,water,298,-4.3495,mol/L
OC(=O)CCC(O)=O,water,298,-0.1521,mol/L
OC(=O)CCCCCCCC(O)=O,water,298,-1.8945,mol/L
OC(=O)CCCCC(O)=O,water,298,-0.6762,mol/L
Nc1ccc(cc1Cl)c2ccc(N)c(Cl)c2,water,298,-4.912,mol/L
Nc1ccc(cc1)c2ccc(N)cc2,water,298,-2.7575,mol/L
Nc1ccccc1N,water,298,-0.4276,mol/L
Nc1ccc(N)cc1,water,298,-0.4658,mol/L
Nc1cccc(N)c1,water,298,0.3426,mol/L
COc1cc(ccc1N)c2ccc(N)c(OC)c2,water,298,-3.6098,mol/L
Cc1ccc(cc1)[S](C)(=O)=O,water,298,-1.9873,mol/L
CCO[P](=S)(OCC)Oc1ccc(cc1)[S](C)(=O)=O,water,298,-2.6383,mol/L
CN(C)C=O,water,298,1.1361,mol/L
CCN(CC)C=O,water,298,0.995,mol/L
CCOC(=O)[C@H](Cc1c[nH]c2ccccc12)N(C)C=O,water,298,-2.2709,mol/L
C=C[S](=O)(=O)Nc1ccccc1,water,298,-1.4996,mol/L
Cc1ccc(NO)cc1,water,298,-0.7894,mol/L
ONc1ccccc1,water,298,-0.4359,mol/L
CCO[P](=S)(OCC)SCC[S](=O)CC,water,298,-1.8609,mol/L
CCO[P](=O)(OCC)SC[S](=O)CC,water,298,-1.5124,mol/L
CC[S](=O)CCS[P](=S)(OC)OC,water,298,-0.9137,mol/L
ClCC[S](=O)CCCl,water,298,-1.1641,mol/L
CC[S](=O)CS[P](=S)(OC(C)C)OC(C)C,water,298,-2.3074,mol/L
CCO[P](=S)(OCC)SC[S](=O)(=O)C(C)(C)C,water,298,-2.8951,mol/L
CC[S](=O)(=O)CC,water,298,0.0433,mol/L
CC[S](=O)(=O)CI,water,298,-0.9714,mol/L
CCO[S](=O)(=O)c1ccccc1,water,298,-2.1308,mol/L
CO[S](=O)(=O)c1ccccc1,water,298,-1.7419,mol/L
Cn1nc(C)c(C(=O)c2ccc(Cl)cc2Cl)c1O[S](=O)(=O)c3ccc(C)cc3,water,298,-6.8946,mol/L
Nc1ccc(cc1)[S](=O)(=O)c2ccc(Cl)cc2,water,298,-4.1267,mol/L
Nc1ccc(N)c(c1)[S](=O)(=O)c2ccccc2C(O)=O,water,298,-1.8395,mol/L
Nc1ccc(cc1)[S](=O)(=O)c2ccc(N)cc2,water,298,-2.8152,mol/L
CC(=O)Nc1ccc(cc1)[S](=O)(=O)c2ccc(N)cc2,water,298,-3.6116,mol/L
CCC(CC)COC(=O)N[S](N)(=O)=O,water,298,-1.7487,mol/L
CCCCOC(=O)N[S](N)(=O)=O,water,298,-1.0375,mol/L
CCCCC(CC)COC(=O)N[S](N)(=O)=O,water,298,-2.402,mol/L
CC(C)N1C(=O)c2ccccc2N[S]1(=O)=O,water,298,-2.6817,mol/L
OC(=O)C(=O)c1ccc2OCOc2c1,water,298,-1.1912,mol/L
O=C1C(=O)c2ccccc2c3ccccc13,water,298,-4.4435,mol/L
OC(=O)C(=O)c1c(cccc1C(O)=O)C(O)=O,water,298,-0.4541,mol/L
CC(N)=S,water,298,0.3364,mol/L
CN1N(C(=CC1=S)C)c2ccccc2,water,298,-1.6668,mol/L
N[C@@H](CSC(/Cl)=C/Cl)C(O)=O,water,298,-1.4895,mol/L
CC(=O)CC1=NCCS1,water,298,-1.156,mol/L
C[Si](C)(C)CN,water,298,-1.762,mol/L
C[Si](C)(C)CCN,water,298,-1.807,mol/L
C[Si](C)(C)C,water,298,-3.6534,mol/L
CC[Si](CC)(CC)CC,water,298,-5.6475,mol/L
Cc1ccc(c(C)c1)[P](O)(O)=O,water,298,-1.0938,mol/L
O[P](O)(=O)c1ccccc1,water,298,0.0798,mol/L
O[P](O)(=O)c1cccc2ccccc12,water,298,-1.6194,mol/L
[Cl-].[Cl-].C[n+]1ccc(cc1)c2cc[n+](C)cc2,water,298,0.4349,mol/L
[Br-].[Br-].C1C[n+]2ccccc2c3cccc[n+]13,water,298,0.3133,mol/L
CCCCOC(=O)N(C)SN(C)C(=O)Oc1cccc2CC(C)(C)Oc12,water,298,-4.5412,mol/L
CCOC(=O)CCN(SN(C)C(=O)Oc1cccc2CC(C)(C)Oc12)C(C)C,water,298,-4.7103,mol/L
CCCCN(CCCC)SN(C)C(=O)Oc1cccc2CC(C)(C)Oc12,water,298,-6.1033,mol/L
CC(=O)O[Hg]c1ccccc1,water,298,-1.8868,mol/L
[Cl-].COCC[Hg+],water,298,-0.771,mol/L
[Hg++].CC([O-])=O.CC([O-])=O,water,298,-0.1054,mol/L
C=O,water,298,1.1206,mol/L
C#CC#C,water,298,-0.7241,mol/L
S=C=S,water,298,-1.8097,mol/L
O=C1CC=CS1,water,298,-0.2225,mol/L
CCO[S](=O)(=O)OCC,water,298,-1.343,mol/L
CO[S](=O)(=O)OC,water,298,-0.6537,mol/L
CC(=O)C(=O)c1ccccc1,water,298,-1.7558,mol/L
CC(=O)C(C)=O,water,298,0.3661,mol/L
CCC(=O)C(C)=O,water,298,-0.1764,mol/L
SC(=O)CCCCC(S)=O,water,298,-1.7326,mol/L
CCOC(=O)OCC,water,298,-0.7982,mol/L
COC(=O)OC(C)C(=O)OC,water,298,-0.6003,mol/L
CCO[P](=S)(OCC)O\N=C(C#N)\c1ccccc1,water,298,-4.8619,mol/L
CCO[P](=S)(OCC)O/N=C(C#N)/c1ccccc1Cl,water,298,-5.2917,mol/L
NC(=S)c1c(Cl)cccc1Cl,water,298,-2.3363,mol/L
CC(=O)CSC#N,water,298,-0.2162,mol/L
N#CSCC(CSC#N)SC#N,water,298,-1.9351,mol/L
O[S](=O)(=O)c1c(Br)c(Br)c(Br)c(Br)c1Br,water,298,-2.0061,mol/L
[O-][S](=O)(=O)c1ccc2oc3ccccc3c2c1,water,298,-0.4655,mol/L
O[S](=O)(=O)c1ccc2ccccc2c1,water,298,0.5133,mol/L
Cc1ccc(cc1[S](O)(=O)=O)[N+]([O-])=O,water,298,0.4873,mol/L
O=C=O,water,298,-1.4748,mol/L
CC1COC(=O)O1,water,298,0.2341,mol/L
COc1cccc(n1)N(C)C(=S)Oc2cccc(c2)C(C)(C)C,water,298,-6.014,mol/L