Solute,Solvent,Temperature_K,Solubility,Units
C[C@H]([NH3+])C(C)(C)C,water,298,0.9861,mol/L
COCCC(=O)OC,water,298,0.8027,mol/L
NNC(=O)C(O)C(O)C(O)C(O)CO,water,298,-0.4985,mol/L
[nH]1c2ccccc2nc1c3occc3,water,298,-3.414,mol/L
Brc1ccc2Nc3ccccc3Sc2c1,water,298,-6.1119,mol/L
Ic1ccc2Nc3ccccc3Sc2c1,water,298,-6.9278,mol/L
ClCC[S](=O)(=O)CC[S](=O)(=O)CCCl,water,298,-1.4486,mol/L
OC(=O)CN(CC(O)=O)Cc1cc2C(=O)c3ccccc3C(=O)c2c(O)c1O,water,298,-1.8077,mol/L
COC(=O)c1ccc(O)c(Cl)c1,water,298,-2.873,mol/L
CCC(O)C(C)(C)C,water,298,-1.1514,mol/L
OC(=O)C[C@@H](Cl)C(O)=O,water,298,-0.7953,mol/L
CCCCCCC(C(O)=O)C(O)=O,water,298,-1.6566,mol/L
OC(=O)COc1c(Cl)ccc(Cl)c1Cl,water,298,-2.6198,mol/L
COCC(=O)c1ccccc1,water,298,-0.7616,mol/L
[Cl-].Cl/C=C/C[N+]12CN3CN(CN(C3)C1)C2,water,298,0.0829,mol/L
C\C=C/CO,water,298,0.3621,mol/L
[O-][N+](=O)C(CCl)([N+]([O-])=O)[N+]([O-])=O,water,298,-0.2586,mol/L
CCC(CC)(C(O)=O)C(CC)(CC)C(O)=O,water,298,-2.9644,mol/L
CCCCOCCC(=O)OC,water,298,-1.2909,mol/L
CCCCCCC(C)O,water,298,-2.0355,mol/L
CCSc1nc(NC(C)C)nc(NC(C)C)n1,water,298,-4.2031,mol/L
C\C=C/C=O,water,298,0.412,mol/L
CC(C)C(=O)Oc1ccc(cc1)[N+]([O-])=O,water,298,-3.9588,mol/L
CCCCOC(=O)CCOC,water,298,-1.2135,mol/L
OC(=O)C[C@@H](Cl)C(O)=O,water,298,0.2047,mol/L
[O-][N+](=O)c1cc2cccnc2c3ncccc13,water,298,-3.9172,mol/L
CCC1=CNC(=O)NC1=O,water,298,-1.9424,mol/L
CNC(CC(O)=O)C(O)=O,water,298,-0.7544,mol/L
OC(=O)c1ccccc1CC(=O)c2ccccc2C(O)=O,water,298,-2.791,mol/L
OC(=O)c1ccc(c(c1)C(O)=O)[N+]([O-])=O,water,298,-1.3391,mol/L
Clc1ccc(cc1)N=Nc2ccccc2,water,298,-5.7023,mol/L
[O-][N+](=O)c1oc(cc1)\C=N\N2CCCOC2=O,water,298,-3.4757,mol/L
O=C1Cc2c(O1)ccc3ccccc23,water,298,-2.7078,mol/L
CC[C@@H]1[C@@H](O)N2[C@H]3C[C@@H]1C4C(O)[C@@]5(C[C@H]24)[C@H]3N(C)c6ccccc56,water,298,-2.8266,mol/L
CCCCCCCCCCC(C(O)=O)C(O)=O,water,298,-3.99,mol/L
Cc1ccc(O)c(CO)c1,water,298,-0.3143,mol/L
CCOC(=O)c1[nH]c(C=O)c(CC)c1C,water,298,-2.7186,mol/L
OC(=O)c1cccnc1Nc2cccc(c2)C(F)(F)F,water,298,-4.1718,mol/L
CC(=O)CC1CCCCN1,water,298,-0.4509,mol/L
COC(C)CCOC(C)=O,water,298,-1.5022,mol/L
CC\C(NO)=C(\CC)N=O,water,298,-2.5525,mol/L
O=[P](N1CCOCC1)(N2CCOCC2)N3CCOCC3,water,298,0.2984,mol/L
Cc1cnc(N[S](=O)(=O)c2ccc(N)cc2)nc1C,water,298,-3.1435,mol/L
CC1CCC(C)(C)C1,water,298,-4.4784,mol/L
CC1NC(=O)CNC1=O,water,298,0.2903,mol/L
CN(C=C)N=O,water,298,-0.4579,mol/L
O=C1NC=NC=C1,water,298,0.586,mol/L
OC1=C(Br)C=CC=CC1=O,water,298,-2.4352,mol/L
CC(=O)C1(C)CO1,water,298,0.3797,mol/L
CCSC(=S)NCC(O)=O,water,298,-1.0882,mol/L
OC[C@H]1O[C@@H](O[C@@H]2[C@@H](CO)O[C@](O)(CO)[C@H]2O)[C@H](O)[C@@H](O)[C@H]1O,water,298,0.3487,mol/L
CCN(CC)C(=O)OC,water,298,-0.2918,mol/L
OC(=O)CCC(=O)c1cccc2ccccc12,water,298,-3.4833,mol/L
CSc1nc(NC(C)C)nc(N=[N+]=[N-])n1,water,298,-3.6124,mol/L
CC1(C)[C@@H]2CC[C@@](C)(C2)C1=O,water,298,-1.8507,mol/L
N[P](N)(=O)c1ccccc1,water,298,-1.1482,mol/L
NCCCNc1ccccc1,water,298,-1.6543,mol/L
CCCN(CCC)c1c(cc(cc1[N+]([O-])=O)[S](C)(=O)=O)[N+]([O-])=O,water,298,-5.7601,mol/L
OC(=O)c1ccccc1C(=O)Nc2ccccc2,water,298,-4.0814,mol/L
[I-].CCN1C=CC(=CC=Cc2cc[n+](CC)c3ccccc23)c4ccccc14,water,298,-2.6816,mol/L
CC(=O)Nc1ccccc1O,water,298,-0.4471,mol/L
[O-]C(=O)c1cccc(Cl)c1[N+]([O-])=O,water,298,-2.6323,mol/L
CCOC[C@H](N)C(O)=O,water,298,0.524,mol/L
OC(=O)CCSSCCC(O)=O,water,298,-0.9301,mol/L
C/C=C/C#N,water,298,-0.4287,mol/L
CCCC(O)C=C,water,298,-0.5993,mol/L
CC(C)C(O)C=C,water,298,-0.515,mol/L
CCC(O)\C=C\C,water,298,-0.4198,mol/L
OC(=O)C(=O)C(c1ccccc1)c2ccccc2,water,298,-2.3354,mol/L
CN(C)C(=O)Nc1cccc(OC(=O)NC(C)(C)C)c1,water,298,-2.9342,mol/L
O=[P](Oc1ccccc1)(N2CCOCC2)N3CCOCC3,water,298,0.3925,mol/L
CCCCOC(=O)CCO,water,298,-1.2899,mol/L
CCC(C)C(C)(C)O,water,298,-0.8707,mol/L
OC(=O)CC(SC(CC(O)=O)C(O)=O)C(O)=O,water,298,-0.4908,mol/L
Cc1cccc(O)c1[N+]([O-])=O,water,298,-1.64,mol/L
ClCC(=O)NC(=O)CCl,water,298,-2.2304,mol/L
C1CCC(CC1)N(Sc2sc3ccccc3n2)C4CCCCC4,water,298,-6.7886,mol/L
COc1cc(C([O-])=O)c(cc1OC)[N+]([O-])=O,water,298,-0.7543,mol/L
CC(=O)Nc1ccc(OC(=O)c2ccccc2OC(C)=O)cc1,water,298,-4.1949,mol/L
O=[S](=O)(N1CCCCC1)c2ccccc2,water,298,-2.5365,mol/L
CCN(CC)C(C#N)c1ccccc1,water,298,-0.9738,mol/L
CC(C(O)=O)c1ccc(c(F)c1)c2ccccc2,water,298,-4.4848,mol/L
[O-][N+](=O)Cc1ccc2ccccc2n1,water,298,-2.0545,mol/L
CCO[P](=S)(OCC)N1C(=O)c2ccccc2C1=O,water,298,-3.3522,mol/L
OC(=O)C(S)CCC(S)C(O)=O,water,298,-2.4758,mol/L
CCSC(=S)N[C@@H](CC(O)=O)C(O)=O,water,298,-1.3863,mol/L
ClCC[S](=O)(=O)CCOCC[S](=O)(=O)CCCl,water,298,-1.9408,mol/L
COc1cc(ccc1C(O)=O)C(O)=O,water,298,-1.9916,mol/L
CCCCC(N)C(O)=O,water,298,-1.061,mol/L
CC(=O)Nc1ccc(Cl)cc1C,water,298,-2.3097,mol/L
CCCCC1=C(C)NC(=NC1=O)N(C)C,water,298,-2.2416,mol/L
CN1C2CCC1CC(C2)OC(=O)C(CO[S](O)(=O)=O)c3ccccc3,water,298,-1.5675,mol/L
CC1=C(SCCO1)C(=O)Nc2ccccc2,water,298,-3.2043,mol/L
CC1=C(C(=O)Nc2ccccc2)[S](=O)(=O)CCO1,water,298,-2.2809,mol/L
OC(=O)CC1CCCCC1,water,298,-1.6935,mol/L
CCCCCCCCCCCCCCCCNC(=O)C(C)O,water,298,-3.6512,mol/L
CCCCCNC(=O)C(C)O,water,298,-0.3825,mol/L
OCC(O)C1OC(Oc2ccccc2)C(O)C(O)C1O,water,298,-1.5537,mol/L
O[P](O)(=O)c1cccc(c1)[N+]([O-])=O,water,298,0.6835,mol/L
CCCCCCCCCCOC(=O)c1cccnc1,water,298,-3.1901,mol/L
CC(C)CC(NC=O)C(O)=O,water,298,-0.7328,mol/L
C[S](=O)(=O)N[S](C)(=O)=O,water,298,0.0402,mol/L
CCCOC(=O)CCOC,water,298,-0.6598,mol/L
COC(OC)\C=C/C(OC)OC,water,298,0.055,mol/L
CN1CCC=C1C,water,298,0.1265,mol/L
CC1(C)C(CCC1(C)C(O)=O)C(O)=O,water,298,-1.7701,mol/L
NN[P](=S)(NN)c1ccccc1,water,298,-1.425,mol/L
Cc1cc(C)cc(OCC(O)=O)c1,water,298,-2.3527,mol/L
Clc1ccc2oc3ccc(Cl)cc3c2c1,water,298,-7.2135,mol/L
CCCCCCNC(=O)C(C)O,water,298,-0.9487,mol/L
CCCCOC(=O)C(C)OC(C)=O,water,298,-0.7536,mol/L
CCc1nc2N(C)C(=O)N(C)C(=O)c2n1C,water,298,-1.5687,mol/L
NC(N)=NC(N)=Nc1ccc2ccccc2c1,water,298,-2.5497,mol/L
OC(=O)CC1NC(=O)NC1=O,water,298,-1.1517,mol/L
Cc1ccc(cc1O)[N+]([O-])=O,water,298,-2.1851,mol/L
NC(=O)SCC(=O)Nc1ccccc1,water,298,-1.3228,mol/L
CCOC(=O)C(CC(O)=O)=C(c1ccccc1)c2ccccc2,water,298,-2.1908,mol/L
Cn1cnc2nc(Cl)nc(NN)c12,water,298,-1.1427,mol/L
CCOC(=O)C1=C(C)OC(=C(C(=O)OCC)C1=O)C,water,298,-1.5255,mol/L
Nc1cc(ccc1I)[N+]([O-])=O,water,298,-4.4216,mol/L
OC(=O)CCC(N(CCC#N)CCC#N)C(O)=O,water,298,-0.2275,mol/L
CSCCC(N(CCC#N)CCC#N)C(O)=O,water,298,-1.3279,mol/L
CCCCCCCCOC(=O)C(C)O,water,298,-1.2726,mol/L
O=C1COc2ccccc2N1,water,298,-2.5716,mol/L
CCC\C(=C/C(O)=O)C(O)=O,water,298,-1.1538,mol/L
CCOC(=O)N1CCN(CC1)C(=O)OCC,water,298,-0.7288,mol/L
CC[C@@H](C)c1cccc([C@@H](C)CC)c1O,water,298,-5.0593,mol/L
[O-][N+](=O)c1ccc2ccc3cccc4ccc1c2c34,water,298,-7.3213,mol/L
CCN(/N=C/c1oc(cc1)[N+]([O-])=O)C(N)=O,water,298,-2.9395,mol/L
OC(=O)CCCCCc1ccccc1,water,298,-2.6026,mol/L
CCCCC(C)(O)CC,water,298,-1.7356,mol/L
CC1=C(CCC1(C)C)C(O)=O,water,298,-2.8871,mol/L
CO[P](=S)(OC)Oc1nc(Cl)c(Cl)cc1Cl,water,298,-4.831,mol/L
CC(C)(C)CC(=O)OCC(=O)[C@@]12OC(C)(C)O[C@@H]1C[C@H]3[C@@H]4CCC5=CC(=O)C=C[C@]5(C)[C@@]4(F)[C@@H](O)C[C@]23C,water,298,-5.1244,mol/L
CCOC1CC1,water,298,-0.6407,mol/L
Cn1cnc2N(C)C(=O)N(CC([O-])=O)C(=O)c12,water,298,-1.3769,mol/L
C[C@@H]1NC(=O)[C@@H](C)NC1=O,water,298,-0.1528,mol/L
O=C1CCC(N1)C(=O)Nc2ccccc2,water,298,-1.3278,mol/L
Oc1ccc(Sc2ccccc2)cc1,water,298,-2.7745,mol/L
CCOCOCOCC,water,298,-0.1277,mol/L
O=C1OCc2ccc3ccccc3c12,water,298,-3.3062,mol/L
OC(=O)CNC(=O)c1occc1,water,298,-0.7272,mol/L
Nc1ccc(cc1)[S](=O)(=O)Nc2sc(cn2)C(O)=O,water,298,-2.8741,mol/L
O[C@H]([C@H](O)[C@H](O)C(O)=O)[C@H](O)C(O)=O,water,298,-1.4774,mol/L
CCC(CC)(CC(O)=O)C(O)=O,water,298,-0.7962,mol/L
OC(C(O)c1ccccc1)C(O)=O,water,298,-0.3063,mol/L
CC=C(Cc1ccccc1)C(O)=O,water,298,-2.5648,mol/L
OC(=O)c1ccc(NC(=O)c2cccnc2)cc1,water,298,-3.0832,mol/L
CCOC(OCC)C(C)=O,water,298,-0.2059,mol/L
O=C1CCCCCNC(=O)CCCCCNC(=O)CCCCCNC(=O)CCCCCN1,water,298,-2.8126,mol/L
CC(C)OC(=O)C(O)(c1ccc(Cl)cc1)c2ccc(Cl)cc2,water,298,-5.3544,mol/L
OC1=C(C2CCCc3ccccc23)C(=O)c4ccccc4O1,water,298,-4.8638,mol/L
CC(=O)OCCS,water,298,-1.5,mol/L
CC1=C(Cl)C(=O)N(C(=O)N1)C(C)(C)C,water,298,-2.4845,mol/L
CO[P](=S)(OC)SS[P](=S)(OC)OC,water,298,-4.3981,mol/L
NC(=O)NN=C[C@H](O)[C@@H](O)[C@H](O)CO,water,298,-0.1288,mol/L
OC(=O)CC[P](O)(O)=O,water,298,0.5007,mol/L
OC[C@H]1O[C@@H](O[C@H]2[C@H](O)[C@@H](O)[C@H](O)O[C@@H]2CO)[C@H](O)[C@@H](O)[C@H]1O,water,298,-0.8167,mol/L
CC(=C)[C@@H]1CCC(=CC1)C,water,298,-3.9944,mol/L
CCN(CC)CCSCCN(CC)CC,water,298,-2.3663,mol/L
COc1ccc2C(OC(=O)c2c1OC)C3N(C)CCc4cc5OCOc5c(OC)c34,water,298,-3.9729,mol/L
CC(=O)CC(CC(O)=O)c1ccccc1,water,298,-1.4463,mol/L
CCN(c1c(cc(cc1[N+]([O-])=O)[N+]([O-])=O)[N+]([O-])=O)[N+]([O-])=O,water,298,-3.7007,mol/L
Nc1ccc(cc1)C#Cc2ccc(N)cc2,water,298,-2.4326,mol/L
OC(=O)c1ccccc1C(=O)c2ccccc2O,water,298,-2.3428,mol/L
[O-][N+](=O)C(COC(=O)c1ccccc1C(=O)OCC([N+]([O-])=O)([N+]([O-])=O)[N+]([O-])=O)([N+]([O-])=O)[N+]([O-])=O,water,298,-3.5782,mol/L
CCC(O)C(Cl)(Cl)Cl,water,298,-0.9481,mol/L
C\C=C/CO,water,298,1.142,mol/L
CC(C)CC1OCCO1,water,298,-0.3695,mol/L
O=C1CCCCCCCCN1,water,298,-1.0737,mol/L
CNCl,water,298,0.2806,mol/L
CN(C)C=Nc1ccc(Cl)cc1C,water,298,-2.8624,mol/L
CCCCCCC(C)O,water,298,-2.0075,mol/L
OC(=O)C(S)CS,water,298,-0.2374,mol/L
O/N=C/c1oc(cc1)[N+]([O-])=O,water,298,-2.1934,mol/L
O=C1CCCCCN1C(=O)c2ccccc2,water,298,-2.1667,mol/L
O=C1C=CC(C=C1)=NNc2ccc(N=Nc3ccccc3)c4ccccc24,water,298,-6.0092,mol/L
CC1(C)C2CCC1(C)C(N)(C2)C(O)=O,water,298,-1.5961,mol/L
[Br-].CC[NH2+]CC,water,298,0.8123,mol/L
Cc1ccc(cc1N)[S](N)(=O)=O,water,298,-1.9169,mol/L
CCCCCCCCNC(=O)C(C)O,water,298,-2.2827,mol/L
CCCCCCCCCCNC(=O)C(C)O,water,298,-3.3605,mol/L
CC(O)C(=O)OC(C)C(=O)OCC=C,water,298,-0.6826,mol/L
CNCC(O)C(O)C(O)C(O)CO,water,298,0.4084,mol/L
COC(=O)C(C)OC(C)=O,water,298,-0.2617,mol/L
OC(=O)CN(CCC#N)CCC#N,water,298,0.4578,mol/L
COc1cc2nccnc2c(N)c1OC,water,298,-1.7102,mol/L
CN(C(N)=O)c1ccc(C)cc1,water,298,-0.423,mol/L
CC(C)CC(C)CO,water,298,-1.6007,mol/L
NC(=O)c1ccc(cc1)[S](N)(=O)=O,water,298,-2.3015,mol/L
CC1=CN(Cc2ccccc2)C(=O)NC1=O,water,298,-2.2558,mol/L
Cc1[nH]cnc1[S](O)(=O)=O,water,298,0.188,mol/L
Cc1ccc2NC(=O)C(=O)Nc2c1,water,298,-3.0418,mol/L
OC(=O)c1ccc(Br)c(c1)[N+]([O-])=O,water,298,-2.9677,mol/L
CN1c2ccccc2C(O)(c3ccccc3)c4ccccc14,water,298,-3.9031,mol/L
CC1(CCCC=C1C(O)=O)C(O)=O,water,298,-1.9642,mol/L
OC(=O)CC(N(CCC#N)CCC#N)C(O)=O,water,298,-1.5337,mol/L
CN(C)C(=O)c1ccccc1C(=O)N(C)C,water,298,0.5083,mol/L
COc1cc(CC=C)ccc1OCC([O-])=O,water,298,-2.2786,mol/L
C\C=C/C(=O)O[C@@H]1C[C@H]2O[C@@H]3C=C(C)C(=O)C[C@]3(C)[C@]1(C)[C@@]24CO4,water,298,-2.9196,mol/L
CCCCCOC(=O)C(C)O,water,298,-1.2047,mol/L
OCc1cc(Cl)ccc1OCC(O)=O,water,298,-2.0347,mol/L
CNC(=O)Oc1cc(C)c(N(CC=C)CC=C)c(C)c1,water,298,-3.5932,mol/L
Clc1cccc(Oc2ccccc2)c1,water,298,-4.2107,mol/L
CC(=C)[C@@H]1CC=C(C)C(=O)C1,water,298,-2.0608,mol/L
Oc1ccc(cc1C(=O)Nc2ccc(Cl)cc2)[N+]([O-])=O,water,298,-5.122,mol/L
Oc1c(cccc1[N+]([O-])=O)C(=O)Nc2ccc(Cl)cc2,water,298,-4.5452,mol/L
CC(C)C(Br)C(=O)NC(C)C(O)=O,water,298,-0.4825,mol/L
Cn1cnc2N(C)C(=O)N(CCCCC(C)=O)C(=O)c12,water,298,-0.558,mol/L
CCCCCOC(=O)c1ccc(O)cc1,water,298,-3.8135,mol/L
CC[C@]12CC[C@H]3[C@@H](CCC4=CC(=O)CC[C@H]34)[C@@H]1CC[C@@]2(O)C#C,water,298,-5.2567,mol/L
O=CCc1ccc2OCOc2c1,water,298,-1.96,mol/L
OC(=O)C1CC(=O)c2ccccc2C1,water,298,-2.1031,mol/L
CCNc1nc(Cl)nc(NCC(=O)OCC)n1,water,298,-2.9374,mol/L
NC(CO)C(=O)NC(CO)C(O)=O,water,298,-0.5847,mol/L
ONC1=C(CCC1)N=O,water,298,-1.9937,mol/L
CC1CCC(=O)N1c2ccccc2,water,298,-0.8457,mol/L
CC1CC(C)(C)CC(C1)(OOC(C)(C)C)OOC(C)(C)C,water,298,-5.7025,mol/L
COC(=O)c1c(cccc1[N+]([O-])=O)C(O)=O,water,298,-2.0853,mol/L
CC(C)OC(=O)c1cccc(c1C([O-])=O)[N+]([O-])=O,water,298,-2.3466,mol/L
CC(C)OC(=O)c1c(cccc1[N+]([O-])=O)C([O-])=O,water,298,-2.4897,mol/L
CC(C)(C)OC(=O)c1cccc(c1C([O-])=O)[N+]([O-])=O,water,298,-3.0467,mol/L
CC(C)CCOC(=O)c1cccc(c1C([O-])=O)[N+]([O-])=O,water,298,-3.0689,mol/L
Cc1cc(C)c(c(C)c1)[PH](O)=O,water,298,-2.7896,mol/L
CCC(C)OC,water,298,-0.7306,mol/L
OCC(CO)OCC=C,water,298,0.481,mol/L
CN(C(/N)=N/[N+]([O-])=O)[N+]([O-])=O,water,298,-0.6104,mol/L
CCC(C)OC(=O)c1cccc(c1C([O-])=O)[N+]([O-])=O,water,298,-2.7193,mol/L
Clc1ccc(Oc2cccc(Cl)c2)cc1,water,298,-4.7701,mol/L
C[C@H]1CCCC[C@@H]1C,water,298,-4.3341,mol/L
NC(CCC(O)=O)C(O)=O,water,298,-1.2194,mol/L
N[C@@H](CO)C(O)=O,water,298,-0.3861,mol/L
NC(CCC(O)=O)C(O)=O,water,298,-0.9916,mol/L
Clc1ccc(Oc2ccccc2Cl)cc1,water,298,-5.52,mol/L
CC(=O)NC(NC(C)=O)c1ccccc1,water,298,-1.3144,mol/L
CNC(=O)\C=C(/C)O[P](=O)(OC)OC,water,298,0.6514,mol/L
COc1c(Cl)c(Cl)cc(Cl)c1Cl,water,298,-5.1307,mol/L
NC(=O)N\N=C\C(O)C(O)C(O)C(O)CO,water,298,-0.4257,mol/L
CCCCOC(=O)c1cccnc1,water,298,-1.8367,mol/L
OCCCOC(=O)c1ccccc1,water,298,-1.2558,mol/L
CSc1ncnc2nccnc12,water,298,-2.365,mol/L
CNC(=O)Oc1ccccc1C2OCCO2,water,298,-1.5706,mol/L
CCC(C)C(N)C(O)=O,water,298,-0.6525,mol/L
Clc1ccc(Oc2ccccc2)cc1,water,298,-4.7925,mol/L
NC(CC(N)=O)C(O)=O,water,298,-0.8755,mol/L
CC(C)c1ccccc1Br,water,298,-4.1898,mol/L
CC(Oc1ccc(Cl)cc1C)C(O)=O,water,298,-2.466,mol/L
CCCC[P](=O)(CCCC)OCC,water,298,-1.2005,mol/L
Cc1cc(O)c(cc1Cl)[N+]([O-])=O,water,298,-4.3901,mol/L
COc1cc(cc(Cl)n1)C(Cl)(Cl)Cl,water,298,-4.3635,mol/L
CCOc1ccc(cc1)N(C(C)=O)C(C)=O,water,298,-1.947,mol/L
CCCCO[P](=O)(OCC)OCCCC,water,298,-1.8456,mol/L
CCCCO[P](=O)(OC)OCCCC,water,298,-1.4995,mol/L
OC(=O)c1cccc2ncccc12,water,298,-2.6774,mol/L
COC(=O)c1cc(Cl)cc(N)c1Cl,water,298,-3.2634,mol/L
CCC(C)(O)C(C)(C)C,water,298,-1.2708,mol/L
CN(C)C(=O)CCC(=O)N(C)C,water,298,0.5035,mol/L
OC(=O)CC[Se][Se]CCC(O)=O,water,298,-2.2681,mol/L
OCN1CC(=O)N(CO)CC1=O,water,298,-0.4168,mol/L
CC(C)C1C(=O)NC(=O)NC1=O,water,298,-1.4556,mol/L
O=[P](Oc1ccccc1)(Oc2ccccc2)N3CCOCC3,water,298,-2.1425,mol/L
CN(N=O)C(C)=O,water,298,-0.7684,mol/L
ClC1(Cl)C2(Cl)C3C(CC4C3C1(Cl)C5(Cl)C4C25Cl)C=O,water,298,-7.2006,mol/L
O=[S]=O,water,298,0.2235,mol/L
CCNc1c(cc(cc1[N+]([O-])=O)[N+]([O-])=O)[N+]([O-])=O,water,298,-3.4085,mol/L
Nc1sc2cccc(O)c2n1,water,298,-1.9196,mol/L
CC1(CCOC1=O)C(O)=O,water,298,0.8412,mol/L
OC(=O)c1ccc2C(=O)c3ccccc3C(=O)c2c1C(O)=O,water,298,-2.8141,mol/L
NC1=NC(=O)N(C=C1)[C@H]2CC[C@@H](CO)O2,water,298,-0.4416,mol/L
COC1(C)COC(C)(CO1)OC,water,298,-1.246,mol/L
COc1cc(\C=C\C)ccc1OCC([O-])=O,water,298,-1.5826,mol/L
O=C1CCCCCCCCCCCCN1,water,298,-2.626,mol/L
OCc1cc(Cl)c(Cl)c(Cl)c1,water,298,-3.0948,mol/L
II,water,298,-2.886,mol/L
Oc1cccc2cncnc12,water,298,-2.0361,mol/L
CCCCS[S](=O)CCCC,water,298,-2.2886,mol/L
NCC(O)c1ccccc1,water,298,-0.4764,mol/L
CC(Cl)C(C)Cl,water,298,-2.3541,mol/L
ON(C(=O)c1occc1)c2ccccc2,water,298,-3.194,mol/L
[H+].[F-],water,298,1.6988,mol/L
O[S](O)(=O)=O,water,298,1.0084,mol/L
CCCOC(=O)c1cccnc1,water,298,-1.2403,mol/L
Cn1c(COC(N)=O)ncc1[N+]([O-])=O,water,298,-1.8433,mol/L
CCCCC(NC(C)=O)C(O)=O,water,298,-0.6823,mol/L
CC(C)=C[C@@H]1[C@@H](C(=O)OCN2C(=O)C3=C(CCCC3)C2=O)C1(C)C,water,298,-5.2579,mol/L
CO[P](=O)(OC)OC(/C)=C/C(=O)OC(C)c1ccccc1,water,298,-2.4973,mol/L
OC(=O)c1c(Cl)ccc2ccccc12,water,298,-2.3152,mol/L
CCCOCCN(C(=O)CCl)c1c(CC)cccc1CC,water,298,-3.795,mol/L
[Na+].[Na+].[Na+].[Na+].[O-][P]([O-])(=O)O[P]([O-])([O-])=O,water,298,-0.5141,mol/L
N#N,water,298,-0.1901,mol/L
O.O.O.O.O.[Cu++].[O-][S]([O-])(=O)=O,water,298,-0.8922,mol/L
O[As](O)(O)=O,water,298,0.6187,mol/L
O=O,water,298,0.0691,mol/L
ClCl,water,298,-1.0513,mol/L
S,water,298,-0.9596,mol/L
COC(=O)\C=C(/C)O[P](=O)(OC)OC,water,298,0.4276,mol/L
CCC(Cl)(Cl)Cl,water,298,-1.8898,mol/L
CC1=CCC(CC1)C(C)(C)O,water,298,-1.8916,mol/L
CCO[P](=O)(OCC)SCCSCC.CCO[P](=S)(OCC)OCCSCC,water,298,-3.9351,mol/L
CCCC(C)c1cccc(OC(=O)NC)c1.CCC(CC)c2cccc(OC(=O)NC)c2,water,298,-3.947,mol/L
CCCCCCCCOCCO,water,298,-2.125,mol/L
CC(C)[C@@H](O)C#N,water,298,0.3048,mol/L
CCC(CC)COC(C)=O,water,298,-1.3528,mol/L
ClC\C=C/Cl,water,298,-1.7067,mol/L
ClC/C=C/Cl,water,298,-1.598,mol/L
CC1CC1(C(O)=O)C(O)=O,water,298,0.8412,mol/L
OC(=O)CC(C(O)=O)(c1ccccc1)c2ccccc2,water,298,-2.4318,mol/L
NC(=O)C(Br)(Br)C#N,water,298,-1.2075,mol/L
COc1ccc(Cl)cc1C(=O)NCCc2ccc(cc2)[S](=O)(=O)NC(=O)NC3CCCCC3,water,298,-5.0917,mol/L
CO[P](N)(=O)SC,water,298,0.8504,mol/L
CCO[P](=S)(OCC)SC(CCl)N1C(=O)c2ccccc2C1=O,water,298,-6.3401,mol/L
CC(C)CN1CCOCC1,water,298,-0.7089,mol/L
CC(=O)N[C@@H](Cc1cc(Br)c(O)c(Br)c1)C(O)=O,water,298,-2.183,mol/L
OC(=O)c1ccc2ncccc2c1,water,298,-0.0456,mol/L
O=C(NC1CCCCC1)c2cccnc2,water,298,-2.319,mol/L
CC1(C)C2CCC1(C)C(=O)C2O,water,298,-0.9249,mol/L
Nc1cc(ccc1Br)[N+]([O-])=O,water,298,-3.5583,mol/L
CCCCCCCCOCC(O)CO,water,298,-1.9208,mol/L
CCOC(=O)CCCOc1ccc(Cl)cc1C,water,298,-4.4095,mol/L
CC(C)=CC1C(C(=O)OCc2coc(Cc3ccccc3)c2)C1(C)C,water,298,-6.9509,mol/L
OC1(CCN(CCCC(=O)c2ccc(F)cc2)CC1)c3ccc(Br)cc3,water,298,-3.6693,mol/L
Cc1c(Cl)c(O)c(Cl)c(Cl)c1Cl,water,298,-4.6021,mol/L
CCO[P](=O)(OC)OC,water,298,0.5112,mol/L
CCO[P](=S)(OCC)SC[S](=O)C(C)(C)C,water,298,-2.4421,mol/L
CC(C)OC(=O)c1cc(cc(c1)[N+]([O-])=O)C(=O)OC(C)C,water,298,-5.0389,mol/L
Clc1cccc(c1Cl)c2ccc(Cl)c(Cl)c2Cl,water,298,-6.8803,mol/L
COC(=O)[C@@]1(O)OC[C@@]23[C@H](C[C@@H](OC(C)=O)[C@]4(CO[C@@H]([C@@H](O)[C@](C)([C@H]12)[C@]56O[C@@]5(C)[C@H]7C[C@@H]6O[C@@H]8OC=C[C@]78O)[C@H]34)C(=O)OC)OC(=O)C(/C)=C/C,water,298,-3.4428,mol/L
O[P](O)(=O)CCCl,water,298,0.8401,mol/L
[Mn].C[c-]1cccc1.[C-]#[O+].[C-]#[O+].[C-]#[O+],water,298,-3.8762,mol/L
CCOc1cc(N=Nc2cc(cc(c2Br)[N+]([O-])=O)[N+]([O-])=O)c(NC(C)=O)cc1N(CCOC(C)=O)CCOC(C)=O,water,298,-8.8336,mol/L
CNC(=O)Oc1cc(C)cc(C)c1C,water,298,-1.9851,mol/L
OC(=O)CC[Ge](=O)O[Ge](=O)CCC(O)=O,water,298,-1.4932,mol/L
COc1ccc(cc1)C(O)(C2CC2)c3cncnc3,water,298,-2.5959,mol/L
CC(C)OCC(O)COC(C)C,water,298,0.0549,mol/L
CC(=O)c1ccc(O)c(c1)C([O-])=O,water,298,-2.2304,mol/L
ClCC(Cl)(Cl)CCl,water,298,-2.5785,mol/L
COC1[C@H](O)C(CO[C@@H]2C(O)C[C@@H](O)OC2C)O[C@@H](O[C@H]3CC[C@]4(C)C5CC[C@]6(C)[C@H](CC[C@]6(O)C5CC[C@]4(O)C3)C7=CC(=O)OC7)C1O,water,298,-1.94,mol/L
CN(C)C(=O)c1ccc(cc1)C(=O)N(C)C,water,298,0.2656,mol/L
O=C(Nc1ccccn1)c2cccnc2,water,298,-2.9771,mol/L
CCN(CC)C(=O)\C(Cl)=C(/C)O[P](=O)(OC)OC,water,298,0.5233,mol/L
[O-][N+](=O)c1ccc(ONC=C2C=C(Br)C(=O)C(=C2)Br)c(c1)[N+]([O-])=O,water,298,-6.6637,mol/L
CCCS[P](=O)(OCC)SCCC,water,298,-2.5094,mol/L
O=C1Nc2cncnc2N1,water,298,-1.5141,mol/L
CN(CC(O)=O)N=O,water,298,0.9278,mol/L
NC(=N)NC(=N)Nc1cccc2ccccc12,water,298,-2.3151,mol/L
CCO[P](=O)(OCC)SCc1ccccc1,water,298,-2.4155,mol/L
Nc1c(cc(Nc2ccc(c(Nc3nc(Cl)nc(Cl)n3)c2)[S](O)(=O)=O)c4C(=O)c5ccccc5C(=O)c14)[S](O)(=O)=O,water,298,0.1956,mol/L
OC(=O)CSC(C(O)=O)c1ccccc1,water,298,-1.1559,mol/L
CCCCNCC,water,298,-0.4405,mol/L
CN1C(=O)N(C)c2nccnc2C1=O,water,298,-1.4598,mol/L
CC1(C)Cc2cccc(c2O1)[N+]([O-])=O,water,298,-3.2068,mol/L
CC1CCOC1,water,298,0.0901,mol/L
CC(=O)N[C@@H](CSc1ccc(Cl)c(Cl)c1)C(O)=O,water,298,-2.8868,mol/L
CCOC(=O)c1cn2nc(O[P](=S)(OCC)OCC)cc2nc1C,water,298,-4.9489,mol/L
IC1=CNC(=O)C=C1,water,298,-1.7423,mol/L
NC(N)=NCCCCCCCCNCCCCCCCCN=C(N)N,water,298,0.3322,mol/L
CCNc1nc(OC)nc(n1)N(CC)CC,water,298,-2.9987,mol/L
CCCCOC(=O)C(C)OC(=O)C(C)O,water,298,-1.3752,mol/L
NC(=O)NCNC(N)=O,water,298,-0.6525,mol/L
CCC(O)CN,water,298,1.0499,mol/L
ClC1=C(Cl)C2(Cl)C3CCC4C(CCC3C1(Cl)C2(Cl)Cl)C5(Cl)C(=C(Cl)C4(Cl)C5(Cl)Cl)Cl,water,298,-13.1719,mol/L
CCO[P](=S)(OCC)Oc1cnc2ccccc2n1,water,298,-4.1322,mol/L
OC(=O)c1cc[n+]([O-])cc1,water,298,-1.102,mol/L
CCCC1CCCNC1,water,298,-1.011,mol/L
CC(CCl)O[P](=O)(OC(C)CCl)OC(C)CCl,water,298,-2.4361,mol/L
ClCC(CCl)O[P](=O)(OC(CCl)CCl)OC(CCl)CCl,water,298,-4.7893,mol/L
CCOC(=O)Nc1cccc(OC(=O)Nc2ccccc2)c1,water,298,-4.6325,mol/L
COC(=O)Nc1cccc(OC(=O)Nc2cccc(C)c2)c1,water,298,-4.8055,mol/L
CC(=O)OC1(CCC2C3C=C(Cl)C4=CC(=O)C=CC4(C)C3CCC12C)C(C)=O,water,298,-4.9453,mol/L
OC[C@@H](NC(=O)CN=[N+]=[N-])[C@H](O)c1ccc(cc1)[N+]([O-])=O,water,298,-1.1692,mol/L
CCC(C)N,water,298,0.1851,mol/L
OC(=O)\C=C\CBr,water,298,-0.7403,mol/L
CN1c2ccccc2Sc3ccc(CC(O)=O)cc13,water,298,-3.9422,mol/L
C/C=C/CC1(C\C=C\C)C(=O)NC(=O)NC1=O,water,298,-2.1973,mol/L
Cc1oc(cc1C([O-])=O)[C@H](O)[C@H](O)[C@H](O)CO,water,298,-1.2774,mol/L
CC(C)[C@@H]1CC[C@@H](C)CC1=O,water,298,-2.4921,mol/L
CN(C)c1ncnc2nccnc12,water,298,-1.0216,mol/L
CCOCCC(=O)OC,water,298,-0.0719,mol/L
CCCCOC(=O)CCOCC,water,298,-1.6391,mol/L
CCCCCOC(=O)CCOCC,water,298,-2.1956,mol/L
CCCCCCOC(=O)CCOCC,water,298,-2.8289,mol/L
CCCOCCC(=O)OC,water,298,-0.6334,mol/L
CCCOCCC(=O)OCCC,water,298,-1.6848,mol/L
CCCCOCCC(=O)OCCCC,water,298,-2.4029,mol/L
Clc1ncc2nccnc2n1,water,298,-0.6988,mol/L
C1COc2ccccc2OCCOCCOc3ccccc3OCCO1,water,298,-4.6935,mol/L