Solute,Solvent,Temperature_K,Solubility,Units
Nc1nc(N)nc(N)n1.O[P](O)(=O)O[P](O)(O)=O,water,298,-2.90897944,mol/L
C=CC(=O)OCCCCCCOC(=O)C=C,water,298,-2.798328315,mol/L
CC(=C)C(=O)OC(C)(C)C,water,298,-2.596590987,mol/L
Cc1ccc(NCCO)c(c1)[N+]([O-])=O,water,298,-2.747405168,mol/L
Cc1ccc(cc1)[N+]([O-])=O,water,298,-2.599338716,mol/L
[O-][N+](=O)c1ccccc1Cl,water,298,-2.671095669,mol/L
C=COC1CCCCC1,water,298,-2.582541974,mol/L
C=COCCCCOC=C,water,298,-2.64774351,mol/L
OC(=O)CN(CCN(CC(O)=O)CC(O)=O)CC(O)=O,water,298,-2.960595625,mol/L
CCCCCCCCN,water,298,-2.606270493,mol/L
Nc1ccc2cc(cc(O)c2c1)[S](O)(=O)=O,water,298,-2.883311239,mol/L
C=CCOc1nc(OCC=C)nc(OCC=C)n1,water,298,-2.90530832,mol/L
[Na+].[Na+].CC1=NN(c2cccc(c2)[S]([O-])(=O)=O)C(=O)C1N=Nc3cc(Cl)c(Cl)cc3[S]([O-])(=O)=O,water,298,-3.264264375,mol/L
CCc1ccc(CC)cc1.CC(C)c2ccccc2.Cc3ccccc3.Cc4cc(C)cc(C)c4.C5CCc6ccccc6C5.C7Cc8ccccc8C7.C9C=Cc%10ccccc9%10.c%11ccccc%11.c%12ccc%13ccccc%13c%12,water,298,-3.539740421,mol/L
CCCCC.CCc1ccccc1.Cc2ccccc2.Cc3cccc(C)c3.C4CCCC4,water,298,-3.172955944,mol/L
O[S](=O)(=O)c1ccc2nc([nH]c2c1)c3ccccc3,water,298,-2.961106136,mol/L
C[C@@H](CCO)CCC=C(C)C,water,298,-2.716751578,mol/L
Cc1cc(O)cc(C)c1Cl,water,298,-2.717703781,mol/L
O=C1CCCCCCCCCCCN1,water,298,-2.818054254,mol/L
Cc1ccccc1.C=Cc2ccccc2.c3ccccc3,water,298,-2.961273931,mol/L
[Mn++].[O-]C(=O)C([O-])=O,water,298,-2.678081133,mol/L
[Li+].[Li+].[Li+].[O-][P]([O-])([O-])=O,water,298,-2.566561051,mol/L
[Li+].[Li+].[Li+].[O-][P]([O-])([O-])=O,water,298,-2.590925857,mol/L
COc1ccc2CCCCc2c1,water,298,-2.747738524,mol/L
O=C1CCCCCCCCCCCN1,water,298,-2.832777511,mol/L
Nc1cccc2c(N)cccc12,water,298,-2.767853696,mol/L
[Li+].[Li+].[Li+].[O-][P]([O-])([O-])=O,water,298,-2.632318542,mol/L
CC(O)CCC1CCCCC1,water,298,-2.767361572,mol/L
CCCCCCCl,water,298,-2.666456778,mol/L
[Ba++].OC(C(O)C([O-])=O)C([O-])=O,water,298,-3.052330404,mol/L
CCCCOCOCCCC,water,298,-2.806877,mol/L
Cc1ccc(C=O)cc1,water,298,-2.681787381,mol/L
O[C@H]([C@H]1C[C@@H]2CCN1C[C@@H]2C=C)c3ccnc4ccccc34,water,298,-3.088723614,mol/L
[Cl-].CCCCCCCCCCCCCCCC[N+](C)(C)C,water,298,-3.124945522,mol/L
CC1(C)COC(=O)C2CC=CCC2C(=O)OC1,water,298,-3.004181056,mol/L
COC(=O)C1C(=CCCC1(C)C)C,water,298,-2.89521053,mol/L
CC(C)[C@H]1CC[C@@H](C)CC1O,water,298,-2.830260853,mol/L
[Na+].CNCC[S]([O-])(=O)=O,water,298,-2.845524033,mol/L
COC(=O)C1C(=CCCC1(C)C)C,water,298,-2.908515996,mol/L
CCOc1nc(NC)nc(NC(=O)N[S](=O)(=O)c2ccccc2C(=O)OC)n1,water,298,-3.265499834,mol/L
[F-].[F-].[F-].[F-].[F-].[F-].[Na+].[Na+].[Na+].[Al+3],water,298,-2.985635459,mol/L
C1CN(CCO1)SSN2CCOCC2,water,298,-3.041139196,mol/L
CCCCC(CC)CO[P](O)(=O)OCC(CC)CCCC,water,298,-3.186210761,mol/L
CC(C)(C)C#C,water,298,-2.613556425,mol/L
[Cl-].CCCCCCCCCCCCCC[N+](C)(C)CCCCCCCCCCCCCC,water,298,-3.37502496,mol/L
OC(C1CC2CCN1CC2C=C)c3ccnc4ccccc34,water,298,-3.16790486,mol/L
CCc1ccccc1,water,298,-2.724963641,mol/L
CC(C)C(=O)OCCOc1ccccc1,water,298,-3.026343537,mol/L
CC1=C(N2C(SC1)C(N)C2=O)C(O)=O,water,298,-3.045355413,mol/L
CCCCCC(=O)OCC=C,water,298,-2.910449305,mol/L
CCC(C)(C)c1ccc(O)cc1,water,298,-2.936746489,mol/L
CC(Cc1ccccc1)(C=C)C#N,water,298,-2.966441099,mol/L
Cc1ccc(C(N)=O)c(O)c1,water,298,-2.917000159,mol/L
CCCCC(CC)CO[P](O)(=O)OCC(CC)CCCC,water,298,-3.248358668,mol/L
Clc1ccc2CC(=O)Nc2c1,water,298,-2.968988553,mol/L
NC12CC3CC(CC(C3)C1)C2,water,298,-2.936665949,mol/L
CCCCC(CC)C(=O)OC,water,298,-2.961272916,mol/L
CC(Cc1ccccc1)(C=C)C#N,water,298,-3.000616717,mol/L
CCCCOC(=O)\C=C/C(=O)OCCCC,water,298,-3.128034162,mol/L
CC(Cc1ccccc1)(C=C)C#N,water,298,-3.005726123,mol/L
CC(=O)/C=C/C1=C(C)CCCC1(C)C,water,298,-3.056097096,mol/L
N[C@@H](CSSC[C@H](N)C(O)=O)C(O)=O,water,298,-3.159921987,mol/L
COC(=O)C1C(=CCCC1(C)C)C,water,298,-3.04851091,mol/L
CCCCC(CC)C(=O)OC,water,298,-2.989804004,mol/L
C1CCC=CC1,water,298,-2.710466438,mol/L
OCCN1C(=O)Nc2ccccc2C1=O,water,298,-3.112893643,mol/L
CCCCCCC[C@H]1CCC(=O)O1,water,298,-3.06681876,mol/L
[Ca++].O[P]([O-])([O-])=O,water,298,-2.949026268,mol/L
CCCC=C,water,298,-2.675673086,mol/L
CC(C)CCCCCN(CCCCCC(C)C)CCCCCC(C)C,water,298,-3.384256418,mol/L
CCCCC(CC)COCC1CO1,water,298,-3.114865162,mol/L
O=[P]12OB(O1)O2,water,298,-2.869075736,mol/L
CCCCC(CC)C(=O)OC,water,298,-3.043982981,mol/L
OC(Cn1ccnc1)c2ccc(Cl)cc2Cl,water,298,-3.264007824,mol/L
COc1ccc2nccc([C@H](O)[C@H]3C[C@@H]4CCN3C[C@@H]4C=C)c2c1,water,298,-3.364984939,mol/L
CCCCC(CC)CO[P](O)(=O)OCC(CC)CCCC,water,298,-3.36230202,mol/L
[Na+].[Na+].[O-][S](=O)(=O)c1cc(Nc2nc(Nc3ccccc3)nc(Nc4ccccc4)n2)ccc1\C=C\c5ccc(Nc6nc(Nc7ccccc7)nc(Nc8ccccc8)n6)cc5[S]([O-])(=O)=O,water,298,-3.825587453,mol/L
[NH3+]CCCCCCCCCCCC([O-])=O,water,298,-3.196398091,mol/L
CC(C)CC1CC(C)CCO1,water,298,-3.079929481,mol/L
C1CN(CCO1)SSN2CCOCC2,water,298,-3.259634304,mol/L
Fc1cc(Br)cc(F)c1F,water,298,-3.210297936,mol/L
S=C(SN1CCOCC1)N2CCOCC2,water,298,-3.291300662,mol/L
Clc1cccc(Cl)c1,water,298,-3.070419139,mol/L
CCC(=O)N(C1CCN(CC1)Cc2ccccc2)c3ccccc3,water,298,-3.41504339,mol/L
Clc1cccc(Cl)c1,water,298,-3.077424041,mol/L
N[C@@H](CSSC[C@H](N)C(O)=O)C(O)=O,water,298,-3.294404784,mol/L
CCCCCCCC\C=C/CCCCCCCC1=NCCN1CCO,water,298,-3.544800763,mol/L
Cc1cc(C)c(O)c(c1)C(C)(C)C,water,298,-3.171909199,mol/L
Cc1cccc2NC(=S)Nc12,water,298,-3.13627918,mol/L
[Na+].[Na+].[Na+].[Na+].[Na+].CCCCCCCCCCCC(O)=O.CCCCCCCCCCCC([O-])=O.CCCCCCCCCCCC(=O)OC(C)C([O-])=O.CCCCCCCCCC(O)=O.CCCCCCCCCC([O-])=O.CCCCCCCCCC(=O)OC(C)C([O-])=O.CC(O)C([O-])=O,water,298,-4.085731667,mol/L
CCCCCCCCCCC=O,water,298,-3.152023201,mol/L
FC(F)(F)c1ccc(Cl)c(Cl)c1,water,298,-3.267982491,mol/L
CCCCOCCCC,water,298,-3.061635932,mol/L
Clc1cccc(Cl)c1,water,298,-3.122006173,mol/L
C1CN(CCO1)SSN2CCOCC2,water,298,-3.332184971,mol/L
CC(=O)/C=C/C1=C(C)CCCC1(C)C,water,298,-3.242591116,mol/L
CC(O)COc1ccc(cc1)C(C)(C)c2ccc(OCC(C)O)cc2,water,298,-3.499700952,mol/L
Cc1ccc(Cl)cc1,water,298,-3.077079812,mol/L
CCC(C)Br,water,298,-3.111478098,mol/L
CC(C)COC(=O)Cc1ccccc1,water,298,-3.271047196,mol/L
C[C@]12CCC(=O)C=C1CC[C@@H]3[C@@H]2CC[C@@]4(C)[C@H]3CCC4(O)C#CCO,water,298,-3.526033775,mol/L
Cc1ccc(Cl)cc1,water,298,-3.102385677,mol/L
C=CC1CC2CC1C=C2,water,298,-3.079886402,mol/L
CC(C)CCC(C)(O)C#CC(C)(O)CCC(C)C,water,298,-3.437525292,mol/L
S.[Ni],water,298,-3.022952972,mol/L
[Fe+3].[O-][P]([O-])([O-])=O,water,298,-3.261464491,mol/L
OC(Cn1ccnc1)c2ccc(Cl)cc2Cl,water,298,-3.496322007,mol/L
CCOC(=O)C1=C(C)C=CCC1(C)C,water,298,-3.376192626,mol/L
C1CCCCC1,water,298,-3.022080351,mol/L
Nc1cccc(c1)[S](=O)(=O)c2cccc(N)c2,water,298,-3.511895604,mol/L
CCOC(=O)C1=C(C)C=CCC1(C)C,water,298,-3.411619706,mol/L
CCOC(=O)C1=C(C)C=CCC1(C)C,water,298,-3.457826014,mol/L
CCCCCCCCCCCCCCCCN,water,298,-3.583510043,mol/L
CCCCCCCCCCCCN,water,298,-3.468663756,mol/L
CCCCCCCCCCCCCCCCCCN,water,298,-3.631245614,mol/L
[O-][N+](=O)c1cccc(C#N)c1C#N,water,298,-2.937344842,mol/L
ClCCN1C(=O)Nc2ccccc2C1=O,water,298,-3.574799439,mol/L
CC1(C)CCC=C(C1)C(=O)CCC=C,water,298,-3.534247486,mol/L
CCCC[C@H](CC)COCCOCCOC(=O)C=C.CCCC[C@@H](CC)COCCOCCOC(=O)C=C,water,298,-3.994274106,mol/L
[Na+].[Na+].[Cr+3].Cc1nn(c([O-])c1N=Nc2cc(ccc2[O-])[S]([O-])(=O)=O)c3ccccc3.[O-]c4ccc(cc4N=Nc5c([O-])ccc6ccccc56)N=Nc7ccccc7,water,298,-2.691606678,mol/L
[Cl-].C[N+](C)=CCC(O)CC(N)=O,water,298,0.605422472,mol/L
CCCCCCCCCCCCN1CCCC1=O,water,298,-3.690367481,mol/L
[Cl-].C[N+](C)=CCC(O)CC(N)=O,water,298,0.597322333,mol/L
CCOC(=C)C1C(C)(C)CC(=O)CC1(C)C,water,298,-3.643344283,mol/L
[Cl-].C[N+](C)=CCC(O)CC(N)=O,water,298,0.593129503,mol/L
[O-][N+](=O)c1cc(Cl)cc(Cl)c1,water,298,-3.584333486,mol/L
SC1CCCCC1,water,298,-3.367213956,mol/L
CCC(C)C,water,298,-3.172500616,mol/L
[S--].[S--].[Sn+4],water,298,-3.580841851,mol/L
Cc1cccc(C)c1NC(=O)C[NH+]2CC[NH2+]CC2,water,298,0.443282789,mol/L
[Na+].[Na+].[Na+].OC([O-])=O.[O-]C([O-])=O,water,298,0.050861362,mol/L
N[S](=O)(=O)c1sc(Cl)cc1,water,298,-3.295936368,mol/L
CC(C)N(C(=O)CO)c1ccc(F)cc1,water,298,-1.178639899,mol/L
C1CCc2ccccc2C1,water,298,-3.451934285,mol/L
CCCCC(CC)CNCC(CC)CCCC,water,298,-3.729638078,mol/L
[OH-].[Cu++].[Cu++].[O-][P]([O-])([O-])=O,water,298,-3.745054809,mol/L
CCCCCCC(=O)OCC=C,water,298,-3.597623767,mol/L
C(OCc1ccccc1)c2ccccc2,water,298,-3.667836455,mol/L
CCCCCCCc1ccc(O)cc1,water,298,-3.659701705,mol/L
C(OCc1ccccc1)c2ccccc2,water,298,-3.672963959,mol/L
CCCCCCCCCc1ccc(OCC(O)=O)cc1,water,298,-3.84259676,mol/L
[Zn++].[Zn++].[Zn++].OC(CC([O-])=O)(CC([O-])=O)C([O-])=O.OC(CC([O-])=O)(CC([O-])=O)C([O-])=O,water,298,-2.254040258,mol/L
Nc1cccc2c(N)cccc12,water,298,-3.597157469,mol/L
CCCCCCCCCCCCCCCCN,water,298,-3.803066996,mol/L
CCCCCCCCCCCCN,water,298,-3.688220709,mol/L
CCCCCCCCCCCCCCCCCCN,water,298,-3.850802567,mol/L
CCCCCCCCCC(C)(C)SSC1=NNC(=S)S1,water,298,-3.988563911,mol/L
CC(O)C(C)\C=C/C1CC=C(C)C1(C)C,water,298,-3.786028703,mol/L
[H+].[Cl-].NNC(=O)C(N)CO,water,298,0.510462812,mol/L
CC(=C)C(=O)OCC(F)(F)C(F)(F)C(F)(F)C(F)F,water,298,-3.972181135,mol/L
CCNc1nc(Cl)nc(NC(C)C)n1,water,298,-3.829627065,mol/L
CC(C)(c1ccc(O)c(CC=C)c1)c2ccc(O)c(CC=C)c2,water,298,-3.996383552,mol/L
CC(C)CC1(C)OCC(CO)O1,water,298,-0.705980377,mol/L
F[S](F)(F)(F)(F)F,water,298,-3.673154735,mol/L
CC(C)CCCCCN(CCCCCC(C)C)CCCCCC(C)C,water,298,-4.05724758,mol/L
CCCCCC(CO)CCC,water,298,-3.722318506,mol/L
C1CN(CCC1Nc2ccccc2)Cc3ccccc3,water,298,-3.954222946,mol/L
OC(=O)C(CCBr)(c1ccccc1)c2ccccc2,water,298,-4.069491258,mol/L
CC12CCC(=O)C=C1C=CC3C2CCC4(C)C3CCC45CCC(=O)O5,water,298,-4.100706158,mol/L
[Na+].[Na+].CCCCCCCC\C=C/CCCCCCCCNC(=O)CC(C([O-])=O)[S]([O-])(=O)=O,water,298,-0.019515783,mol/L
CC(=C)C(=O)OCC(F)(F)C(F)(F)C(F)(F)C(F)F,water,298,-4.045967349,mol/L
CC1(C)C2CCC3(C2)C1C(=O)CCC3(C)C,water,298,-3.940004359,mol/L
CC(C)(C)CCCCC(O)=O,water,298,-0.767955255,mol/L
CC(C)(C)CCCCC(O)=O,water,298,-2.475043149,mol/L
CCCCCCCCCCCCCCOC(=O)OOC(=O)OCCCCCCCCCCCCCC,water,298,-4.320693308,mol/L
COCc1ccc(cc1)c2ccc(COC)cc2,water,298,-4.002368633,mol/L
CCCCCCCCCCCCCCOC(=O)OOC(=O)OCCCCCCCCCCCCCC,water,298,-4.349900579,mol/L
S=[Fe],water,298,-3.621828866,mol/L
C1C=CC2C3CC(C=C3)C12,water,298,-3.82022117,mol/L
CC(C)CCCC(C)CCCC(C)=O,water,298,-4.005176134,mol/L
Clc1ccc(Cl)c(Cl)c1,water,298,-3.980000978,mol/L
C1CCC\C=C/CC1,water,298,-3.770339988,mol/L
CN(C)C(=S)SSC(=S)N(C)C,water,298,-4.116196121,mol/L
CC(=C)C(=O)OCC(F)(F)C(F)(F)C(F)(F)C(F)F,water,298,-4.222058608,mol/L
CO[Si](CC(C)C)(OC)C(C)C,water,298,-4.02430091,mol/L
CN1C(C)(C)CC(CC1(C)C)OC(=O)CC(C(CC(=O)OC2CC(C)(C)N(C)C(C)(C)C2)C(=O)OC3CC(C)(C)N(C)C(C)(C)C3)C(=O)OC4CC(C)(C)N(C)C(C)(C)C4,water,298,-4.672731896,mol/L
CN(C)C(=S)SSC(=S)N(C)C,water,298,-4.148017834,mol/L
[H+].[Cl-].OC(=O)C1CCNCC1,water,298,0.384031592,mol/L
CCOC(=O)C1=C(COCCN2C(=O)c3ccccc3C2=O)NC(=C(C1c4ccccc4Cl)C(=O)OC)C,water,298,-4.501126952,mol/L
C=CCOC(=O)CCC1CCCCC1,water,298,-4.062449254,mol/L
CCOc1nc(NC)nc(NC(=O)N[S](=O)(=O)c2ccccc2C(=O)OC)n1,water,298,-4.387910769,mol/L
[Ca++].[O-]C([O-])=O,water,298,-3.780265245,mol/L
[OH-].[OH-].[Ca++],water,298,-3.64966323,mol/L
O=[Ca],water,298,-3.528676684,mol/L
Cc1cc(Cc2ccc(N)c(C)c2)ccc1N,water,298,-4.150608709,mol/L
CCCCNC(=S)N(CCCC)CCCC,water,298,-4.184066506,mol/L
CCCCC(CC)CNCC(CC)CCCC,water,298,-4.236722556,mol/L
Nc1ccc(Cc2ccc(N)c(Cl)c2)cc1Cl,water,298,-4.286890723,mol/L
CC(O)C(C)(C)\C=C\C1CC=C(C)C1(C)C,water,298,-4.216746334,mol/L
CCCCCCCCCCCCCCCCN,water,298,-4.26890724,mol/L
CCCCCCCCCCCCN,water,298,-4.154060953,mol/L
CCCCCCCCCCCCCCCCCCN,water,298,-4.316642812,mol/L
CC(CC(C)(C)C)C[P](O)(=O)CC(C)CC(C)(C)C,water,298,-4.366128471,mol/L
N[S](=O)(=O)c1ccc(NC(=S)Nc2ccc(F)cc2)cc1,water,298,-2.989959968,mol/L
Oc1cc(Cl)ccc1Oc2ccc(Cl)cc2Cl,water,298,-4.382534824,mol/L
CCOC(=O)c1nn(c2ccc(OC)cc2)c3C(=O)N(CCc13)c4ccc(cc4)N5CCCCC5=O,water,298,-4.628205844,mol/L
CC(C)Cc1ccc(cc1)C(C)C(O)=O,water,298,-4.257943925,mol/L
ON1CC(=O)N=C2C=CC(=CC2=C1c3ccccc3Cl)Cl,water,298,-4.465332821,mol/L
Nc1nc(N)nc(N)n1.O=C2NC(=O)NC(=O)N2,water,298,-4.406877267,mol/L
CCCCCC,water,298,-3.944170335,mol/L
NC(NC#N)=NCCCCCCN=C(N)NC#N,water,298,-4.434690373,mol/L
CCC(=O)OC(C)(CCC=C(C)C)C=C,water,298,-4.382357893,mol/L
[Na+].[Na+].[Na+].[Cr+3].Cc1nn(c([O-])c1N=Nc2c([O-])cc(c3ccccc23)[S]([O-])(=O)=O)c4ccccc4.Cc5nn(c([O-])c5N=Nc6c([O-])cc(c7ccccc67)[S]([O-])(=O)=O)c8ccccc8,water,298,-1.212102898,mol/L
[Al+3].[O-][P]([O-])(=O)O[P]([O-])(=O)O[P]([O-])([O-])=O,water,298,-4.601895549,mol/L
CCCCCCCCCCCCCCCCCCCCCC[N+](C)(C)C.CO[S]([O-])(=O)=O,water,298,-4.835973065,mol/L
COC1=Cc2ccccc2Nc3ccccc13,water,298,-4.514419394,mol/L
CCCCC(CC)CO.O[P](O)(O)=O,water,298,-4.58384625,mol/L
CC(C)CCCC(C)CCCC(C)CCCC(C)(O)C=C,water,298,-4.708653825,mol/L
CCNc1nc(Cl)nc(NCC)n1,water,298,-4.580911818,mol/L
CCN(CC)c1ccc(cc1)[C+](c2ccccc2)c3ccc(cc3)N(CC)CC.O[S]([O-])(=O)=O,water,298,-2.057288344,mol/L
CC[C@]12CCC3=C(CCc4cc(OC)ccc34)[C@@H]1CCC2=O,water,298,-4.772922847,mol/L
COC1=CCC2=C(CC[C@@H]3[C@@H]2CC[C@]4(C)[C@@H](O)CC[C@@H]34)C1,water,298,-4.761071931,mol/L
NC(NC#N)=NCCCCCCN=C(N)NC#N,water,298,-4.70828212,mol/L
CCC1(C/C=C2/CCCc3cc(OC)ccc23)C(=O)CCC1=O,water,298,-4.838817119,mol/L
[Mn++].[O-]C([O-])=O,water,298,-4.500587238,mol/L
CC(=O)OC1N=C(c2ccccc2Cl)c3cc(Cl)ccc3NC1=O,water,298,-5.028666923,mol/L
[F-].[F-].[F-].[La+3],water,298,-4.760555519,mol/L
COC1=CCC2=C(CCC3C2CCC4(C)C3CCC4=O)C1,water,298,-4.979874504,mol/L
CC(C)Nc1nc(Cl)nc(NC(C)C)n1,water,298,-4.8840681,mol/L
N(c1ccccc1)c2cccc3ccccc23,water,298,-4.863891631,mol/L
O=C(OCCOC(=O)c1ccccc1)c2ccccc2,water,298,-5.070092502,mol/L
O=[Ni],water,298,-4.519165649,mol/L
CC1CCC2(C)C(=CCCC2(C)C1OC=O)C,water,298,-5.031142113,mol/L
COC(=O)CCc1cc(c(O)c(c1)C(C)(C)C)C(C)(C)C,water,298,-5.123582907,mol/L
C1CC(CC=C1)C2OCC3(CO2)COC(OC3)C4CCC=CC4,water,298,-5.239735444,mol/L
C1CC(CC=C1)C2OCC3(CO2)COC(OC3)C4CCC=CC4,water,298,-5.243993267,mol/L
CCC(C)C(C)C(C)CCc1ccc(O)cc1,water,298,-5.182405388,mol/L
CC[C@]12CC[C@H]3[C@@H](CCC4=C3CC=C(C4)OC)[C@@H]1CCC2=O,water,298,-5.363817292,mol/L
CC(C)CCCCCCCOC(=O)c1ccc(C(=O)OCCCCCCCC(C)C)c(c1)C(=O)OCCCCCCCC(C)C,water,298,-5.706573948,mol/L
[OH-].[OH-].[OH-].[Cl-].[Cu++].[Cu++],water,298,-5.253985152,mol/L
CC(C)CCCCCCCCCCOC(=O)CCCCC(=O)OCCCCCCCCCCC(C)C,water,298,-5.659070274,mol/L
[Zn++].CN(C)C([S-])=S.CN(C)C([S-])=S,water,298,-5.498714031,mol/L
CC(C)CCCC(C)CCCC(C)CCCC(C)=O,water,298,-5.474677518,mol/L
O=[Mn],water,298,-4.921453892,mol/L
CC(C)C(=O)OC[C@H]1O[C@@](COC(C)=O)(O[C@H]2O[C@H](COC(C)=O)[C@@H](OC(=O)C(C)C)[C@H](OC(=O)C(C)C)[C@H]2OC(=O)C(C)C)[C@@H](OC(=O)C(C)C)[C@@H]1OC(=O)C(C)C,water,298,-6.073534809,mol/L
[OH-].[OH-].[OH-].[Cl-].[Cu++].[Cu++],water,298,-5.479498856,mol/L
[Mn],water,298,-4.894774805,mol/L
[F-].[F-].[F-].[La+3],water,298,-5.45571032,mol/L
[F-].[F-].[F-].[La+3],water,298,-5.535398328,mol/L
CCOc1nc(NC)nc(NC(=O)N[S](=O)(=O)c2ccccc2C(=O)OC)n1,water,298,-5.865032024,mol/L
O=C(CC(=O)c1ccccc1)c2ccccc2,water,298,-5.657902962,mol/L
CC1=CC(=N/Nc2ccccc2[N+]([O-])=O)\C(=O)C=C1,water,298,-5.747595864,mol/L
O=[Cu],water,298,-5.305116664,mol/L
[Fe+3].[Fe+3].[Fe+3].[Fe+3].[O-][P]([O-])(=O)O[P]([O-])([O-])=O.[O-][P]([O-])(=O)O[P]([O-])([O-])=O.[O-][P]([O-])(=O)O[P]([O-])([O-])=O,water,298,-6.30760853,mol/L
CCCCCCCCCCCCS[Sn](CCCC)(CCCC)SCCCCCCCCCCCC,water,298,-6.295424349,mol/L
CCCCCCCCCCCCCCCCCCCCCCOC(=O)CCCCCCCCC(=O)OCCCCCCCCCCCCCCCCCCCCCC,water,298,-6.405660228,mol/L
CC(=O)OC1(CCC2C3CC(=C)C4=CC(=O)CCC4(C)C3CCC12C)C(C)=O,water,298,-6.107793161,mol/L
CCCCN(CCCC)C(=S)SCSC(=S)N(CCCC)CCCC,water,298,-6.240523569,mol/L
COC(=O)c1ccc2cc(ccc2c1)C(=O)OC,water,298,-6.301467629,mol/L
CCOC(=O)c1nn(c2ccc(OC)cc2)c3C(=O)N(CCc13)c4ccc(cc4)[N+]([O-])=O,water,298,-6.618719326,mol/L
CCCCCCCCCCCCCCCCCCOCCCN(C)C,water,298,-6.85205403,mol/L
[Ta],water,298,-6.929174184,mol/L
COc1ccc(c(O)c1)C(=O)c2ccccc2O,water,298,-7.273884108,mol/L
O=[Cr]O[Cr]=O,water,298,-7.168974933,mol/L
O=C1CCCCCN1C(=O)Nc2ccc(Cc3ccc(NC(=O)N4CCCCCC4=O)cc3)cc2,water,298,-7.763261262,mol/L
Cc1ccc(Sc2ccc(cc2)C(=O)c3ccccc3)cc1,water,298,-7.61540826,mol/L
[F-].[F-].[F-].[La+3],water,298,-8.071926348,mol/L
CCCCCCCCCC(C)(C)SSC(C)(C)CCCCCCCCC,water,298,-9.190113958,mol/L
CC(C(C)(C)C)C(C)(C)SSSC(C)(C)C(C)C(C)(C)C,water,298,-9.129966133,mol/L
[Zn++].[O-][N+]([O-])=O.[O-][N+]([O-])=O,water,298,0.721755153,mol/L
[Ba++].CC(C)(C)CC(C)(C)CC([O-])=O.CC(C)(C)CC(C)(C)CC([O-])=O,water,298,-1.698832456,mol/L
[Br-].CCCC[P+](CCCC)(CCCC)CCCC,water,298,0.41483097,mol/L
NC(CO)(CO)CO,water,298,0.860221287,mol/L
NC(CO)CO,water,298,0.974427117,mol/L
[Ag+].[Ag+].O[S](O)(=O)=O,water,298,-1.58498354,mol/L
O.O.O.O.[Cl-].[Cl-].[Mn++],water,298,0.582641307,mol/L
NC(CO)(CO)CO,water,298,0.790628369,mol/L
[Br-].CC[NH+](CC)CC,water,298,0.595197285,mol/L
[Li+].[OH-],water,298,0.471989099,mol/L
CCOC1=C(O)C(=O)O[C@@H]1[C@@H](O)CO,water,298,0.531350525,mol/L
CO[S]([O-])(=O)=O.C[N+](CCO)(CCO)CCO,water,298,0.39266642,mol/L
NC(CO)(CO)CO,water,298,0.747956465,mol/L
[Na+].[Na+].CCCCCCCCCCCCCCCCc1c(Oc2ccccc2[S]([O-])(=O)=O)cccc1[S]([O-])(=O)=O,water,298,0.222765354,mol/L
[NH4+].[NH4+].[O-]C(=O)CSSCC([O-])=O,water,298,0.459603052,mol/L
OCCCOCC(OCCCO)C(OCCCO)C(OCCCO)C(COCCCO)OCCCO,water,298,0.053341445,mol/L
CC1=CC(=O)N2NC=NC2=N1,water,298,-1.347195531,mol/L
[Na+].[Na+].Nc1ncnc2n(cnc12)[C@@H]3O[C@H](CO[P](O)(=O)O[P]([O-])(=O)O[P](O)([O-])=O)[C@@H](O)[C@H]3O,water,298,0.016887962,mol/L
[Na+].[Na+].CN(CC(O)=O)C(N)=N[P]([O-])([O-])=O,water,298,0.312658284,mol/L
[Ba++].CCCCC(CC)C([O-])=O.CCCCC(CC)C([O-])=O,water,298,-0.905288847,mol/L
[Na+].OC[C@@H](O)[C@@H](O)[C@H](O)[C@@H](O)[C@@H](O)C([O-])=O,water,298,0.317070198,mol/L
[Na+].[Na+].[O-]C(=O)CCC(=O)C([O-])=O,water,298,0.429525605,mol/L
NCCCCCCCCCCN,water,298,1.527701003,mol/L
[Zn++].CCCCC(CC)C([O-])=O.CCCCC(CC)C([O-])=O,water,298,1.184806747,mol/L
[Na+].[Na+].CC(C)CCCCCCCO.OC(=O)CC(C(O)=O)[S](O)(=O)=O,water,298,0.08106542,mol/L
[Na+].[Na+].N[C@@H](CCC([O-])=O)C([O-])=O,water,298,0.371965463,mol/L
[Zn++].[O-]C(=O)c1ccccc1.[O-]C(=O)c2ccccc2,water,298,-1.816841725,mol/L
CC1CO1,water,298,0.832570488,mol/L
CCCCOCNC(=O)C=C,water,298,-0.653663028,mol/L
[Ba++].CC(C)(C)CC(C)(C)CC([O-])=O.CC(C)(C)CC(C)(C)CC([O-])=O,water,298,-1.145809569,mol/L
[Br-],water,298,-0.376229243,mol/L
[Na+].CCCCCCCCCCCCN(CCC(O)=O)CCC([O-])=O,water,298,-0.040729633,mol/L
[Na+].CCCCCCCC/C=C/CCCCCCCC(=O)N(C)CC([O-])=O,water,298,-0.097522226,mol/L
CC(=O)Oc1ccccc1C(O)=O,water,298,-1.778534708,mol/L
CC(O)C(=O)NCCO,water,298,1.307032379,mol/L
[Ba++].[Ba++].[Ba++].[O-][P]([O-])([O-])=O.[O-][P]([O-])([O-])=O,water,298,-1.345611894,mol/L
OCC1CCCO1,water,298,0.38877392,mol/L
CC(=C)C(=O)OCCO.O[P](O)(O)=O,water,298,-0.960255718,mol/L
[K+].CC(C)CCCCCCCCCCCCCCC([O-])=O,water,298,-0.207599364,mol/L
CCOC(=O)c1ccc(O)c(O)c1,water,298,-1.86254877,mol/L
[Na+].[O-][S](=O)(=O)c1ccc(C=C)cc1,water,298,-0.033251081,mol/L
[Ba++].CCCCC(CC)C([O-])=O.CCCCC(CC)C([O-])=O,water,298,-0.402307506,mol/L
CC(=O)CC(C)=O,water,298,0.186448508,mol/L
COC(=O)CC(=O)OC,water,298,0.027341968,mol/L
[Mg].[Mg].[Mg].OC(=O)CC(O)(CC(O)=O)C(O)=O.OC(=O)CC(O)(CC(O)=O)C(O)=O,water,298,-1.546125822,mol/L
[Na+].OC[C@@H](O)[C@@H](O)[C@H](O)[C@@H](O)C(O)C([O-])=O,water,298,0.70666632,mol/L
NC1=C(F)C=NC(=O)N1,water,298,-1.050208217,mol/L
CCOC1=C(O)C(=O)O[C@@H]1[C@@H](O)CO,water,298,0.689991055,mol/L
CN(C)C(=N)N(C)C,water,298,0.938622926,mol/L
OCC(O)COC(=O)CS,water,298,0.779374207,mol/L
OCCOCCOCCOCCO,water,298,0.711690398,mol/L
CC(CCO)CCO,water,298,0.927470714,mol/L
CC(O)=O.OCCNCCO,water,298,0.782018876,mol/L
[Mg++].C[O-].C[O-],water,298,1.063621996,mol/L
CO,water,298,1.494280384,mol/L
CC(O)=O.OCCN(CCO)CCO,water,298,0.679351138,mol/L
O=[S]1(=O)CCCC1,water,298,-0.079806903,mol/L
CC(=C)C(=O)OCCO,water,298,-0.114420814,mol/L
CC(=C)C(N)=O,water,298,0.070039821,mol/L
Cl.CNCC(O)c1cccc(O)c1,water,298,-0.308924931,mol/L
COC(C)(C)CCO,water,298,-0.072529286,mol/L
[Zn++].CCCCO[P]([S-])(=S)OCCCC.CCCCO[P]([S-])(=S)OCCCC,water,298,-2.50838394,mol/L
[Na+].[O-][S](=O)(=O)c1ccc(N\N=C2\C(=O)C=Cc3ccccc23)c4ccccc14,water,298,-2.426393048,mol/L
[OH-].[OH-].[Cu++].[Cu++].[O-]C([O-])=O,water,298,-2.280158252,mol/L
[Zn++].CCCCC(CC)C([O-])=O.CCCCC(CC)C([O-])=O,water,298,0.455435409,mol/L
[Na+].CCC(C)O[P]([S-])(=S)OC(C)CC,water,298,-2.42214317,mol/L
CC(=O)C1C(=O)OC(=CC1=O)C,water,298,-2.526721702,mol/L
CC(C)CCCCCC(=O)NCCCCCC(O)=O,water,298,-2.770853612,mol/L
CC(C)C(NC(N)=O)NC(N)=O,water,298,-2.763936868,mol/L