Solute,Solvent,Temperature_K,Solubility,Units
CCCCCCCCCCCCO,water,298,-4.668,mol/L
CC(C)(O)C#C,water,298,1.075,mol/L
OCCCc1ccccc1,water,298,-1.38,mol/L
OCCOc1ccccc1,water,298,-0.714,mol/L
CC(C)CCO,water,298,-0.519,mol/L
CCCCCCC(C)O,water,298,-2.065,mol/L
CCC(C)CO,water,298,-0.472,mol/L
OCCF,water,298,1.193,mol/L
CC(O)C(C)(C)C,water,298,-0.624,mol/L
CCCCCC(C)O,water,298,-1.551,mol/L
CCC(O)CC,water,298,-0.233,mol/L
Cc1ccc(CO)cc1,water,298,-1.2,mol/L
CCCC(O)CCC,water,298,-1.393,mol/L
CCCCC(O)CC,water,298,-1.463,mol/L
CC1CCC(O)CC1,water,298,-0.882,mol/L
CCCC(O)CC,water,298,-0.803,mol/L
OCC[N+]([O-])=O,water,298,1.041,mol/L
CCCCC(C)O,water,298,-0.873,mol/L
CCCC(C)O,water,298,-0.296,mol/L
OCc1c(Cl)cccc1Cl,water,298,-2.102,mol/L
C=O,water,298,1.121,mol/L
CCCCCC=O,water,298,-1.249,mol/L
CC=O,water,298,1.356,mol/L
ClC(Cl)(Cl)C=O,water,298,-0.691,mol/L
O=Cc1occc1,water,298,-0.096,mol/L
[O-][N+](=O)c1cccc(C=O)c1,water,298,-1.967,mol/L
O=Cc1ccccc1,water,298,-1.208,mol/L
Oc1cccc(C=O)c1,water,298,-0.647,mol/L
O=C/C=C/c1ccccc1,water,298,-1.969,mol/L
C=CC=O,water,298,0.578,mol/L
O=Cc1ccc2OCOc2c1,water,298,-1.632,mol/L
CCC=O,water,298,0.722,mol/L
CCCC=O,water,298,-0.007,mol/L
[O-][N+](=O)c1ccccc1C=O,water,298,-1.814,mol/L
[O-][N+](=O)c1ccc(C=O)cc1,water,298,-1.81,mol/L
COC(C)=O,water,298,0.516,mol/L
COC(=O)C(C)=C,water,298,-0.824,mol/L
CCOC(=O)c1ccccc1C(=O)OCC,water,298,-2.313,mol/L
CC(C)COC(=O)c1ccccc1C(=O)OCC(C)C,water,298,-4.652,mol/L
CCCCOC(=O)c1ccccc1C(=O)OCCCC,water,298,-4.395,mol/L
CCCCOC(=O)c1ccccc1C(=O)OCc2ccccc2,water,298,-5.065,mol/L
COC(=O)c1ccccc1,water,298,-1.812,mol/L
COC(=O)c1cccnc1,water,298,-0.46,mol/L
CCOC(=O)c1ccccc1,water,298,-2.319,mol/L
CCOC(=O)c1ccc(N)cc1,water,298,-2.101,mol/L
CCCOC(=O)c1ccc(N)cc1,water,298,-2.328,mol/L
CCCOC(=O)c1ccc(O)cc1,water,298,-2.557,mol/L
CCCCOC(=O)c1ccc(O)cc1,water,298,-2.972,mol/L
COC(=O)C=C,water,298,-0.241,mol/L
CCOC(=O)C(C)=C,water,298,-1.325,mol/L
CCCCOC(=O)C(C)=C,water,298,-2.25,mol/L
COC(=O)c1cc(O)c(O)c(O)c1,water,298,-1.24,mol/L
COC(=O)c1ccc(O)cc1,water,298,-1.784,mol/L
CCOC(=O)\C=C\c1ccccc1,water,298,-2.996,mol/L
CCOC(=O)CC,water,298,-0.726,mol/L
CCOC(=O)NC,water,298,0.826,mol/L
CCOC(=O)CC(=O)OCC,water,298,-0.839,mol/L
CC(C)COC(=O)C=C,water,298,-1.853,mol/L
CC(=O)OC=C,water,298,-0.634,mol/L
COCC(C)OC(C)=O,water,298,0.176,mol/L
CC(=C)C(=O)OCCOCCOCCOC(=O)C(C)=C,water,298,-1.901,mol/L
CCCOC(C)=O,water,298,-0.733,mol/L
CCOC=O,water,298,0.076,mol/L
CCCCCCCCCC(=O)OC,water,298,-4.627,mol/L
CCCOC=O,water,298,-0.603,mol/L
CCCCC(CC)COC(=O)c1ccccc1C(=O)OCC(CC)CCCC,water,298,-6.968,mol/L
CCOC(=O)c1ccc(O)cc1,water,298,-2.309,mol/L
CCCOC(=O)c1cc(O)c(O)c(O)c1,water,298,-1.783,mol/L
COC(=O)c1ccc(OC)cc1,water,298,-2.412,mol/L
CCCCOC(C)=O,water,298,-1.141,mol/L
COC(=O)c1ccccc1C(=O)OC,water,298,-1.686,mol/L
C=CCOC(=O)c1ccccc1C(=O)OCC=C,water,298,-3.131,mol/L
Nc1ccc(c(O)c1)C(=O)Oc2ccccc2,water,298,-4.515,mol/L
CCCCOC(=O)c1ccccc1,water,298,-3.48,mol/L
CC(=O)OCc1ccccc1,water,298,-1.685,mol/L
CCOC(=O)C=C,water,298,-0.824,mol/L
CCCCOC(=O)C=C,water,298,-1.807,mol/L
CCOC(C)=O,water,298,-0.042,mol/L
CCC(=O)OC,water,298,-0.15,mol/L
CC(=C)C(=O)OC(C)(C)C,water,298,-2.153,mol/L
CC(C)OC(=O)c1ccccc1C(=O)OC(C)C,water,298,-2.877,mol/L
COC(=O)c1ccc(N)cc1,water,298,-1.597,mol/L
OCCOC(=O)C=C,water,298,0.935,mol/L
CC(=C)C(=O)OCCO,water,298,-0.114,mol/L
CC(=O)OCCBr,water,298,-0.674,mol/L
CC(O)COC(=O)C=C,water,298,0.886,mol/L
CCCCCCCCC(=O)OC,water,298,-3.876,mol/L
CC(=O)OC[C@@H](OC(C)=O)[C@@H](OC(C)=O)[C@H](OC(C)=O)[C@@H](OC(C)=O)C=O,water,298,-2.415,mol/L
CCCCCOC(=O)c1ccc(N)cc1,water,298,-3.35,mol/L
CCCCCCCOC(=O)c1ccc(N)cc1,water,298,-4.6,mol/L
CCCCCCCCOC(=O)c1ccc(N)cc1,water,298,-5.4,mol/L
CCC(=O)c1ccc(O)cc1,water,298,-2.639,mol/L
CC1=CC(=O)CC(C)(C)C1,water,298,-1.061,mol/L
CCC(C)=O,water,298,0.49,mol/L
O=C1c2ccccc2C(=O)c3ccccc13,water,298,-5.188,mol/L
CCC(=O)c1ccccc1,water,298,-1.827,mol/L
CC(=O)c1ccccc1,water,298,-1.292,mol/L
CC(=O)c1ccc(N)cc1,water,298,-1.606,mol/L
CC(=O)c1ccc(O)cc1,water,298,-1.138,mol/L
O=C1C=CC(=O)C=C1,water,298,-0.989,mol/L
CCCC(C)=O,water,298,-0.302,mol/L
CC(C)CC(C)=O,water,298,-0.722,mol/L
CC(C)CCC(C)=O,water,298,-1.325,mol/L
CCCCCC(C)=O,water,298,-1.424,mol/L
CCCCCCC(C)=O,water,298,-2.154,mol/L
O=C(c1ccccc1)c2ccccc2,water,298,-3.124,mol/L
Oc1ccc(O)cc1,water,298,-0.184,mol/L
CC(=O)CC(C)=O,water,298,0.22,mol/L
CC(=O)C(C)=O,water,298,0.366,mol/L
CC(C)C(C)=O,water,298,-0.151,mol/L
CCCCC(C)=O,water,298,-0.758,mol/L
CCCCCCCCC(C)=O,water,298,-3.309,mol/L
CCCCCCCC(C)=O,water,298,-2.584,mol/L
CC1CO1,water,298,1.007,mol/L
C1OC1c2ccccc2,water,298,-1.603,mol/L
ClCC1CO1,water,298,-0.147,mol/L
OCC1CO1,water,298,1.13,mol/L
OCC(F)(F)F,water,298,1.0,mol/L
OCCCl,water,298,1.094,mol/L
OCC(Cl)(Cl)Cl,water,298,-0.254,mol/L
OCCBr,water,298,0.903,mol/L
C#N,water,298,1.568,mol/L
CC#N,water,298,1.387,mol/L
N#Cc1ccccc1,water,298,-1.712,mol/L
CCC#N,water,298,0.272,mol/L
C=CC#N,water,298,0.147,mol/L
N#CCC#N,water,298,0.304,mol/L
N#CCCC#N,water,298,0.204,mol/L
N#CCCCCC#N,water,298,-0.131,mol/L
CC(=C)C#N,water,298,-0.422,mol/L
N#CCCCC#N,water,298,1.026,mol/L
Clc1cccc(Cl)c1C#N,water,298,-3.98,mol/L
FC1=CNC(=O)NC1=O,water,298,-1.069,mol/L
[O-][N+](=O)OCC(CO[N+]([O-])=O)O[N+]([O-])=O,water,298,-2.216,mol/L
CN1C(=O)N(C)c2nc[nH]c2C1=O,water,298,-1.389,mol/L
O=C1Nc2ccccc2C=C1,water,298,-2.139,mol/L
CN1CC(=O)N=C1N,water,298,-0.15,mol/L
CNN,water,298,1.337,mol/L
CC1=CNC(=O)NC1=O,water,298,-1.519,mol/L
O=C1NC=CC(=O)N1,water,298,-1.493,mol/L
[O-][N+](=O)C(Cl)(Cl)Cl,water,298,-2.006,mol/L
CCC1(CCC(=O)NC1=O)c2ccccc2,water,298,-2.337,mol/L
[O-][N+](=O)O[C@H]1CO[C@@H]2[C@@H](CO[C@H]12)O[N+]([O-])=O,water,298,-2.633,mol/L
c1cnc2ncncc2n1,water,298,0.034,mol/L
CNCC(C)c1ccccc1,water,298,-1.095,mol/L
O=NN1CCCCC1,water,298,-0.174,mol/L
c1ccc(cc1)N=Nc2ccccc2,water,298,-4.454,mol/L
C1CNCCN1,water,298,1.065,mol/L
C1CCNCC1,water,298,1.07,mol/L
C1COCCN1,water,298,1.06,mol/L
O=C1NNC(=O)C=C1,water,298,-1.271,mol/L
NC(N)=NC#N,water,298,-0.309,mol/L
O=C1CNC(=O)N1,water,298,-0.402,mol/L
CN1C=CC(=O)NC1=O,water,298,-0.8,mol/L
CN1C=CC=CC1=O,water,298,0.962,mol/L
CN1CCCC1=O,water,298,1.004,mol/L
O=NN1CCCC1,water,298,0.999,mol/L
CCCCCCCCCCCCN1CCCC1=O,water,298,-4.67,mol/L
CCCCCCCCCCCCN1CC(CC1=O)C(O)=O,water,298,-3.223,mol/L
CN1CC(CC1=O)C(O)=O,water,298,-0.954,mol/L
CNC(=O)N1C=C(F)C(=O)NC1=O,water,298,-2.48,mol/L
COC(=O)C1CN(C)C(=O)C1,water,298,0.804,mol/L
CCCCNC(=O)N1C=C(F)C(=O)NC1=O,water,298,-2.446,mol/L
CCCCCCN1CC(CC1=O)C(=O)OC,water,298,-1.246,mol/L
CN1CCC[C@H]1c2cccnc2,water,298,0.79,mol/L
NC(=O)c1cccnc1,water,298,0.612,mol/L
OCc1cccnc1,water,298,0.962,mol/L
CCc1ccccn1,water,298,0.501,mol/L
Cc1cccc(C)n1,water,298,0.447,mol/L
Cc1cc(C)nc(C)c1,water,298,-0.539,mol/L
Cc1ccncc1,water,298,1.031,mol/L
Cc1cccnc1,water,298,1.031,mol/L
Oc1cccnc1,water,298,-0.456,mol/L
Brc1ccccn1,water,298,-0.881,mol/L
Cc1ccccn1,water,298,1.031,mol/L
Clc1ccccn1,water,298,-0.754,mol/L
c1ccncc1,water,298,1.102,mol/L
c1ccc(nc1)c2ccccn2,water,298,-1.421,mol/L
c1cc(ccn1)c2ccncc2,water,298,-1.538,mol/L
NC(=O)c1cnccn1,water,298,-0.914,mol/L
Cc1cnccn1,water,298,1.026,mol/L
c1cncnc1,water,298,1.096,mol/L
Cc1cc(N)nc(C)n1,water,298,-1.284,mol/L
CCC1(C(=O)NC(=O)NC1=O)c2ccccc2,water,298,-2.321,mol/L
CCC1(CC)C(=O)NC(=O)N(C)C1=O,water,298,-2.0,mol/L
CCCCC1C(=O)N(N(C1=O)c2ccccc2)c3ccccc3,water,298,-3.812,mol/L
COC(=O)[C@H]1[C@H](CC2CCC1N2C)OC(=O)c3ccccc3,water,298,-2.227,mol/L
CN(C)CCCN1c2ccccc2Sc3ccc(Cl)cc13,water,298,-5.097,mol/L
CCC1(C(=O)NC(=O)NC1=O)C2=CCCCC2,water,298,-2.169,mol/L
C=CCC1(CC=C)C(=O)NC(=O)NC1=O,water,298,-2.061,mol/L
CC(C)(S)[C@@H](N)C(O)=O,water,298,-0.128,mol/L
OC1(CCN(CCCC(=O)c2ccc(F)cc2)CC1)c3ccc(Cl)cc3,water,298,-4.429,mol/L
N[S](=O)(=O)c1cc(C(O)=O)c(NCc2occc2)cc1Cl,water,298,-3.656,mol/L
CN1C(=O)NC(=O)C(C)(C1=O)C2=CCCCC2,water,298,-2.735,mol/L
CC\C(c1ccc(O)cc1)=C(\CC)c2ccc(O)cc2,water,298,-4.35,mol/L
OCC(NC(=O)C(Cl)Cl)C(O)c1ccc(cc1)[N+]([O-])=O,water,298,-2.111,mol/L
O=C1C[C@@H]2OCC=C3CN4CC[C@@]56[C@@H]4C[C@@H]3[C@@H]2[C@@H]5N1c7ccccc67,water,298,-3.32,mol/L
O=C1NC(=O)C(N1)(c2ccccc2)c3ccccc3,water,298,-3.897,mol/L
CCC1(CCC(C)C)C(=O)NC(=O)NC1=O,water,298,-2.574,mol/L
CCC1(CC)C(=O)NC(=O)NC1=O,water,298,-1.393,mol/L
CCCC(C)(COC(N)=O)COC(N)=O,water,298,-1.667,mol/L
Cc1cc(C)nc(N[S](=O)(=O)c2ccc(N)cc2)n1,water,298,-2.268,mol/L
CN(C)C1=C(C)N(C)N(c2ccccc2)C1=O,water,298,-0.629,mol/L
OCCN1CCN(CCCN2c3ccccc3Sc4ccc(Cl)cc24)CC1,water,298,-4.155,mol/L
CN(C)CCCN1c2ccccc2Sc3ccccc13,water,298,-4.302,mol/L
N[S](=O)(=O)c1cc2c(NCN[S]2(=O)=O)cc1Cl,water,298,-2.615,mol/L
CCN(CC)CCOC(=O)c1ccc(N)cc1,water,298,-1.398,mol/L
CC(=O)Nc1sc(nn1)[S](N)(=O)=O,water,298,-2.356,mol/L
CN1N(C(=O)C=C1C)c2ccccc2,water,298,-0.564,mol/L
CC(CN1c2ccccc2Sc3ccccc13)N(C)C,water,298,-4.26,mol/L
[O-][N+](=O)c1sc(nc1)N2CCNC2=O,water,298,-3.217,mol/L
[Cl-].COC(C[Hg+])CNC(N)=O,water,298,-1.524,mol/L
CCOc1ccc(NC(C)=O)cc1,water,298,-2.369,mol/L
COC(=O)C1=CCCN(C)C1,water,298,0.809,mol/L
OCCN1CCN(CCCN2c3ccccc3Sc4ccc(cc24)C(F)(F)F)CC1,water,298,-4.149,mol/L
Nc1ncnc2n(ccc12)C3OC(CO)C(O)C3O,water,298,-1.951,mol/L
Nc1ccc(cc1)[S](=O)(=O)Nc2sccn2,water,298,-2.425,mol/L
CCCC(C)C1(CC)C(=O)NC(=O)NC1=O,water,298,-2.523,mol/L
CCC1(C(C)C)C(=O)NC(=O)NC1=O,water,298,-2.214,mol/L
CCCC(C)C1(CC=C)C(=O)NC(=S)NC1=O,water,298,-3.458,mol/L
CCC(Br)(CC)C(=O)NC(N)=O,water,298,-2.676,mol/L
COc1ccc(N[S](=O)(=O)c2ccc(N)cc2)nn1,water,298,-3.28,mol/L
O=C1N[S](=O)(=O)c2ccccc12,water,298,-1.661,mol/L
Cn1cnc2N(C)C(=O)NC(=O)c12,water,298,-2.737,mol/L
O=C1NC(=O)c2ccccc12,water,298,-2.611,mol/L
CCCNC(=O)N[S](=O)(=O)c1ccc(Cl)cc1,water,298,-3.03,mol/L
COc1cc(CC=C)ccc1O,water,298,-1.562,mol/L
CCN(CC)C(=S)SSC(=S)N(CC)CC,water,298,-4.86,mol/L
CC(=O)OCC(COC(C)=O)OC(C)=O,water,298,-0.575,mol/L
C=CCC1(C(=O)NC(=O)NC1=O)c2ccccc2,water,298,-2.152,mol/L
CCCCCC1(CC)C(=O)NC(=O)NC1=O,water,298,-2.176,mol/L
CN1CCN(CCCN2c3ccccc3Sc4ccc(cc24)C(F)(F)F)CC1,water,298,-4.524,mol/L
COc1cc(N[S](=O)(=O)c2ccc(N)cc2)nc(OC)n1,water,298,-2.957,mol/L
CCCCC1C(=O)N(N(C1=O)c2ccc(O)cc2)c3ccccc3,water,298,-3.733,mol/L
N[S](=O)(=O)c1cc2c(NC(N[S]2(=O)=O)C(Cl)Cl)cc1Cl,water,298,-2.677,mol/L
CCN(CC)CC(=O)Nc1c(C)cccc1C,water,298,-1.757,mol/L
OC[C@H]1O[C@@H](Oc2ccccc2CO)[C@H](O)[C@@H](O)[C@@H]1O,water,298,-0.855,mol/L
Cc1sc(N[S](=O)(=O)c2ccc(N)cc2)nn1,water,298,-2.411,mol/L
OCC(O)C(O)CO,water,298,0.699,mol/L
CN[C@@H](C)[C@H](O)c1ccccc1,water,298,-0.415,mol/L
O=C1N=CN=C2NNC=C12,water,298,-2.379,mol/L
CCCCNC(=O)N[S](=O)(=O)c1ccc(N)cc1,water,298,-2.178,mol/L
COc1cc2N3C4[C@@H]5C(CC3=O)OCC=C6CN7CC[C@]4([C@@H]7C[C@H]56)c2cc1OC,water,298,-2.091,mol/L
CN1C(=O)CN=C(c2ccccc2)c3cc(Cl)ccc13,water,298,-3.755,mol/L
Cc1ncc(n1CCO)[N+]([O-])=O,water,298,-1.256,mol/L
CCOc1ccc2nc(sc2c1)[S](N)(=O)=O,water,298,-3.81,mol/L
Nc1ccc(cc1)[S](=O)(=O)Nc2ccnn2c3ccccc3,water,298,-2.321,mol/L
Oc1cc(O)c2C(=O)C[C@H](Oc2c1)c3ccc(O)c(O)c3,water,298,-3.615,mol/L
COc1cnc(N[S](=O)(=O)c2ccc(N)cc2)nc1,water,298,-2.584,mol/L
Cc1onc(N[S](=O)(=O)c2ccc(N)cc2)c1,water,298,-2.618,mol/L
COc1cc(Cc2cnc(N)nc2N)cc(OC)c1OC,water,298,-2.861,mol/L
OC1N=C(c2ccccc2Cl)c3cc(Cl)ccc3NC1=O,water,298,-3.604,mol/L
Cc1ccc(cc1)[S](=O)(=O)NC(=O)NN2CCCCCC2,water,298,-3.678,mol/L
Clc1cccc(n1)C(Cl)(Cl)Cl,water,298,-3.761,mol/L
CCCC1(CCC)C(=O)NC(=O)NC1=O,water,298,-2.549,mol/L
CN(C)C(=O)Nc1cccc(OC(=O)NC(C)(C)C)c1,water,298,-2.934,mol/L
CC(C(O)=O)c1ccc(c(F)c1)c2ccccc2,water,298,-4.485,mol/L
CCO[P](=S)(OCC)N1C(=O)c2ccccc2C1=O,water,298,-3.352,mol/L
CC1=C(SCCO1)C(=O)Nc2ccccc2,water,298,-3.141,mol/L
CC1=C(C(=O)Nc2ccccc2)[S](=O)(=O)CCO1,water,298,-2.427,mol/L
CN(C)C=Nc1ccc(Cl)cc1C,water,298,-2.862,mol/L
O/N=C/c1oc(cc1)[N+]([O-])=O,water,298,-2.193,mol/L
CNC(=O)Oc1ccccc1C2OCCO2,water,298,-1.571,mol/L
CC(C)Cc1ccc(cc1)C(C)C(O)=O,water,298,-3.992,mol/L
CC(C(O)=O)c1cccc(c1)C(=O)c2ccccc2,water,298,-3.698,mol/L
COc1ccc2cc(ccc2c1)C(C)C(O)=O,water,298,-4.161,mol/L
[O-][N+](=O)c1nccn1CC(=O)NCc2ccccc2,water,298,-2.813,mol/L
OC(=O)CCC(=O)c1ccc(cc1)c2ccccc2,water,298,-5.061,mol/L
NC1=CC(=NC(=N)N1O)N2CCCCC2,water,298,-1.982,mol/L
CN=C(NCCSCc1nc[nH]c1C)NC#N,water,298,-1.345,mol/L
CCC(=O)N(c1ccccc1)C2(CCN(CCc3sccc3)CC2)COC,water,298,-3.706,mol/L
OC(Cn1cncn1)(c2ccc(F)cc2)c3ccccc3F,water,298,-3.365,mol/L
CNc1cccc2C(=O)c3ccccc3C(=O)c12,water,298,-6.3,mol/L
Nc1ccc(N)c2C(=O)c3ccccc3C(=O)c12,water,298,-5.859,mol/L
[Cl-].CN(C)c1ccc(cc1)[C+](c2ccc(cc2)N(C)C)c3ccc(cc3)N(C)C,water,298,-2.009,mol/L
COc1cc(N)c2C(=O)c3ccccc3C(=O)c2c1N,water,298,-5.746,mol/L
CCN(CCO)c1ccc(cc1)N=Nc2ccc(cc2)[N+]([O-])=O,water,298,-6.293,mol/L
Cc1cc(ccc1N=Nc2ccc(cc2Cl)[N+]([O-])=O)N(CCO)CCO,water,298,-6.57,mol/L
[O-][N+](=O)c1cc(ccc1Nc2ccccc2)[S](=O)(=O)Nc3ccccc3,water,298,-6.269,mol/L
OCCN(CCC#N)c1ccc(cc1)N=Nc2ccc(cc2Cl)[N+]([O-])=O,water,298,-6.13,mol/L
O=C1C(c2ccc3ccccc3n2)C(=O)c4ccccc14,water,298,-6.209,mol/L
COc1cc(N=Nc2c(Br)cc(cc2[N+]([O-])=O)[N+]([O-])=O)c(NC(C)=O)cc1N(CCC#N)CC=C,water,298,-8.9,mol/L
CCN1C(=O)C(=N/Nc2ccc(Cl)cc2[N+]([O-])=O)/C(=C(C#N)C1=O)C,water,298,-6.69,mol/L
C[C@@H]1C[C@H]2[C@@H]3CCC4=CC(=O)C=C[C@]4(C)[C@@]3(F)[C@@H](O)C[C@]2(C)[C@@]1(O)C(=O)CO,water,298,-3.644,mol/L
CC(=O)OCC(=O)[C@@]1(O)CC[C@H]2[C@@H]3CCC4=CC(=O)CC[C@]4(C)[C@H]3[C@@H](O)C[C@]12C,water,298,-4.458,mol/L
CC(=O)OCC(=O)[C@@]1(O)CC[C@H]2[C@@H]3CCC4=CC(=O)CC[C@]4(C)[C@H]3C(=O)C[C@]12C,water,298,-4.304,mol/L
C[C@]12C[C@H](O)[C@H]3[C@@H](CCC4=CC(=O)CC[C@]34C)[C@@H]1CC[C@@H]2C(=O)CO,water,298,-3.241,mol/L
C[C@]12CCC(=O)C=C1CC[C@H]3[C@@H]4CC[C@](O)(C(=O)CO)[C@@]4(C)C[C@H](O)[C@H]23,water,298,-3.054,mol/L
C[C@]12C[C@H](O)[C@H]3[C@@H](CCC4=CC(=O)C=C[C@]34C)[C@@H]1CC[C@]2(O)C(=O)CO,water,298,-3.209,mol/L
CC(=O)S[C@@H]1CC2=CC(=O)CC[C@]2(C)[C@H]3CC[C@@]4(C)[C@@H](CC[C@@]45CCC(=O)O5)[C@H]13,water,298,-4.277,mol/L
CC(=O)OCC(=O)[C@@]1(O)CC[C@H]2[C@@H]3CCC4=CC(=O)C=C[C@]4(C)[C@H]3[C@@H](O)C[C@]12C,water,298,-4.369,mol/L
C[C@]12CCC(=O)C=C1CC[C@H]3[C@@H]4CC[C@](O)(C(=O)CO)[C@@]4(C)CC(=O)[C@H]23,water,298,-3.11,mol/L
C[C@]12CC[C@H]3[C@@H](CCc4cc(O)ccc34)[C@@H]1CCC2=O,water,298,-3.955,mol/L
CC(=O)OCC(=O)[C@H]1CC[C@H]2[C@@H]3CCC4=CC(=O)CC[C@]4(C)[C@H]3CC[C@]12C,water,298,-4.63,mol/L
CC(=O)[C@H]1CC[C@H]2[C@@H]3CCC4=CC(=O)CC[C@]4(C)[C@H]3CC[C@]12C,water,298,-4.553,mol/L
C[C@]1(O)CC[C@H]2[C@@H]3CCC4=CC(=O)CC[C@]4(C)[C@H]3CC[C@]12C,water,298,-3.95,mol/L
C[C@]12CC[C@H]3[C@@H](CCC4=CC(=O)CC[C@]34C)[C@@H]1CC[C@@H]2O,water,298,-4.091,mol/L
C[C@]12CC[C@H]3[C@@H](CCC4=CC(=O)CC[C@]34C)[C@@H]1CCC2=O,water,298,-3.695,mol/L
C[C@]12CC[C@H]3[C@@H](CCC4=CC(=O)CC[C@]34C)[C@@H]1CC[C@@H]2C(=O)CO,water,298,-3.745,mol/L
CC(=O)OCC(=O)[C@@]1(O)[C@@H](C[C@H]2[C@@H]3CCC4=CC(=O)C=C[C@]4(C)[C@@]3(F)[C@@H](O)C[C@]12C)OC(C)=O,water,298,-4.13,mol/L
CC(=O)[C@@]1(O)CC[C@H]2[C@@H]3CCC4=CC(=O)CC[C@]4(C)[C@H]3CC[C@]12C,water,298,-4.708,mol/L
CC1(C)O[C@@H]2C[C@H]3[C@@H]4CCC5=CC(=O)C=C[C@]5(C)[C@@]4(F)[C@@H](O)C[C@]3(C)[C@@]2(O1)C(=O)CO,water,298,-4.316,mol/L
C[C@]12C[C@H](O)[C@@]3(F)[C@@H](CCC4=CC(=O)C=C[C@]34C)[C@@H]1C[C@@H](O)[C@]2(O)C(=O)CO,water,298,-3.693,mol/L
C[C@]12C[C@H](O)[C@@]3(F)[C@@H](CCC4=CC(=O)CC[C@]34C)[C@@H]1CC[C@]2(O)C(=O)CO,water,298,-3.434,mol/L
C[C@H]1C[C@H]2[C@@H]3CC[C@](O)(C(C)=O)[C@@]3(C)C[C@H](O)[C@]2(F)[C@@]4(C)C=CC(=O)C=C14,water,298,-4.099,mol/L
CCCCC(=O)O[C@@]1([C@@H](C)C[C@H]2[C@@H]3CCC4=CC(=O)C=C[C@]4(C)[C@@]3(F)[C@@H](O)C[C@]12C)C(=O)CO,water,298,-4.71,mol/L
NC1(CCCC1)C(O)=O,water,298,-0.412,mol/L
NCCCC(O)=O,water,298,1.101,mol/L
NC(CC(O)=O)C(O)=O,water,298,-0.318,mol/L
NCCCCCC(O)=O,water,298,0.585,mol/L
NC(Cc1ccccc1)C(O)=O,water,298,-0.788,mol/L
CC(C)C(N)C(O)=O,water,298,-0.302,mol/L
CCC(N)C(O)=O,water,298,0.311,mol/L
CCCC(N)C(O)=O,water,298,-0.069,mol/L
Cc1c[nH]c2ccccc12,water,298,-2.421,mol/L
c1ccc2c(c1)ccc3ncccc23,water,298,-3.357,mol/L
c1ccc2ncccc2c1,water,298,-1.325,mol/L
Nc1nc(N)nc(n1)c2ccccc2,water,298,-2.494,mol/L
N1c2ccccc2Sc3ccccc13,water,298,-5.098,mol/L
[nH]1nc2ccccc2n1,water,298,-0.779,mol/L
s1ccc2ccccc12,water,298,-3.014,mol/L
s1cnc2ccccc12,water,298,-1.497,mol/L
OCc1occc1,water,298,1.008,mol/L
[nH]1cccc1,water,298,-0.173,mol/L
s1cccc1,water,298,-1.446,mol/L
c1ccc2nc(ccc2c1)c3ccc4ccccc4n3,water,298,-5.4,mol/L
[nH]1ccc2ccccc12,water,298,-1.517,mol/L
Oc1cccc2cccnc12,water,298,-2.417,mol/L
c1ccc2cnncc2c1,water,298,-0.415,mol/L
[nH]1ncc2ccccc12,water,298,-2.155,mol/L
o1cnc2ccccc12,water,298,-1.155,mol/L
c1ccnnc1,water,298,1.096,mol/L
C1Cc2ccccc2C1,water,298,-3.035,mol/L
Cc1occc1,water,298,-1.437,mol/L
[O-]c1cccc2[nH+]cccc12,water,298,-2.542,mol/L
Oc1ccc2ncccc2c1,water,298,-2.162,mol/L
COCc1oc(cc1)[N+]([O-])=O,water,298,-1.155,mol/L
Cc1[nH]c2ccccc2n1,water,298,-1.96,mol/L
CSc1sc2ccccc2n1,water,298,-3.161,mol/L
Cc1cscc1,water,298,-2.39,mol/L
NCc1occc1,water,298,1.013,mol/L
CN(C)c1nc(nc(n1)N(C)C)N(C)C,water,298,-3.364,mol/L
CCc1sccc1,water,298,-2.585,mol/L
CC1=CC(=O)NO1,water,298,-0.067,mol/L
COC(=O)C(C)N(C(=O)c1occc1)c2c(C)cccc2C,water,298,-3.117,mol/L
NC(N)=S,water,298,0.271,mol/L
NC(=S)Nc1cccc2ccccc12,water,298,-2.528,mol/L
S=C1NCCN1,water,298,-0.708,mol/L
NC(=S)Nc1ccccc1,water,298,-1.79,mol/L
OCC(O)CO,water,298,1.036,mol/L
OC[C@H]1O[C@H](O[C@]2(CO)O[C@H](CO)[C@@H](O)[C@@H]2O)[C@H](O)[C@@H](O)[C@@H]1O,water,298,0.788,mol/L
CC(O)CO,water,298,1.119,mol/L
Cc1ccccc1OCC(O)CO,water,298,-1.189,mol/L
CCC(CO)(CO)CO,water,298,0.872,mol/L
CC(O)COC(C)CO,water,298,0.872,mol/L
OCCO,water,298,1.207,mol/L
CC(O)CNCC(C)O,water,298,0.815,mol/L
OCCNCCO,water,298,0.978,mol/L
OCC(CO)(CO)CO,water,298,-0.275,mol/L
OC1COC(O)C(O)C1O,water,298,0.564,mol/L
C[C@@H](O)[C@H](C)O,water,298,1.045,mol/L
OCC(CO)(CBr)CBr,water,298,-0.838,mol/L
CC(N)=S,water,298,0.336,mol/L
C[S](C)=O,water,298,1.107,mol/L
OC(=O)CS,water,298,1.036,mol/L
S=C=S,water,298,-1.81,mol/L
CO[S](=O)(=O)OC,water,298,-0.654,mol/L
Nc1ccc(cc1)[S](=O)(=O)c2ccc(N)cc2,water,298,-2.815,mol/L
Sc1ccccc1,water,298,-2.12,mol/L
CCCCS,water,298,-2.179,mol/L
CCSCC,water,298,-1.46,mol/L
C[S](F)(=O)=O,water,298,-0.515,mol/L
CCO[P](=O)(OCC)OCC,water,298,0.439,mol/L
O=[P](Oc1ccccc1)(Oc2ccccc2)Oc3ccccc3,water,298,-5.235,mol/L
CCCCO[P](=O)(OCCCC)OCCCC,water,298,-2.978,mol/L
CO[P](=O)(OC)OC,water,298,0.553,mol/L
CN(C)[P](=O)(N(C)C)N(C)C,water,298,0.747,mol/L
CO[P](C)(=O)OC,water,298,0.906,mol/L
CC(C)O[P](C)(=O)OC(C)C,water,298,-0.052,mol/L
Oc1cccc2c(O)cccc12,water,298,-2.987,mol/L
[O-][N+](=O)c1cccc2ccccc12,water,298,-4.276,mol/L
Cc1cccc2ccccc12,water,298,-3.741,mol/L
Clc1cccc2ccccc12,water,298,-3.971,mol/L
Oc1cccc2ccccc12,water,298,-2.221,mol/L
N(c1ccccc1)c2cccc3ccccc23,water,298,-3.563,mol/L
c1ccc2ccccc2c1,water,298,-3.616,mol/L
Oc1cc2ccccc2cc1O,water,298,-2.738,mol/L
Oc1cc(O)c2ccccc2c1,water,298,-1.949,mol/L
Nc1cccc2ccccc12,water,298,-1.925,mol/L
Oc1ccc2ccccc2c1,water,298,-2.281,mol/L
Nc1cccc2cccc(N)c12,water,298,-2.27,mol/L
S=C=Nc1cccc2ccccc12,water,298,-4.602,mol/L
Cc1ccc(C)c2ccccc12,water,298,-4.137,mol/L
Cc1cc(C)c2ccccc2c1,water,298,-4.291,mol/L
Cc1cc2ccccc2cc1C,water,298,-4.895,mol/L
Cc1ccc2cc(C)ccc2c1,water,298,-4.893,mol/L
Oc1ccc2cc(O)ccc2c1,water,298,-2.205,mol/L
[O-][N+](=O)c1ccc2ccccc2c1,water,298,-4.273,mol/L
Cc1ccc2cc(C)c(C)cc2c1,water,298,-5.001,mol/L
CCc1ccc2ccccc2c1,water,298,-4.29,mol/L
CCc1cccc2ccccc12,water,298,-4.164,mol/L
Clc1ccc(Cl)c2ccccc12,water,298,-5.803,mol/L
Clc1cccc2cccc(Cl)c12,water,298,-5.796,mol/L
Clc1cc2ccccc2cc1Cl,water,298,-6.357,mol/L
Cc1ccc(C)c2c(C)cccc12,water,298,-4.909,mol/L
Clc1ccc2ccc(Cl)cc2c1,water,298,-5.922,mol/L
Nc1cccc2c(N)cccc12,water,298,-2.619,mol/L
OCc1cccc2ccccc12,water,298,-1.744,mol/L
Clc1c(Cl)c(Cl)c2ccccc2c1Cl,water,298,-7.795,mol/L
Clc1cccc2c(Cl)c(Cl)c(Cl)cc12,water,298,-7.857,mol/L
Clc1cc(Cl)c2cc(Cl)cc(Cl)c2c1,water,298,-7.823,mol/L
Clc1ccc2cc(Cl)cc(Cl)c2c1,water,298,-6.556,mol/L
Clc1ccc(Cl)c2cc(Cl)c(Cl)cc12,water,298,-7.516,mol/L
C[C@H](CCC(O)=O)[C@H]1CC[C@H]2[C@@H]3[C@H](O)C[C@@H]4C[C@H](O)CC[C@]4(C)[C@H]3C[C@H](O)[C@]12C,water,298,-3.368,mol/L
C[C@H](CCC(O)=O)[C@H]1CC[C@H]2[C@@H]3CC[C@@H]4C[C@H](O)CC[C@]4(C)[C@H]3C[C@H](O)[C@]12C,water,298,-3.954,mol/L
C[C@H](CCC(O)=O)[C@H]1CC[C@H]2[C@@H]3[C@@H](O)C[C@@H]4C[C@H](O)CC[C@]4(C)[C@H]3CC[C@]12C,water,298,-4.293,mol/L
C[C@H](CCC(O)=O)[C@H]1CC[C@H]2[C@@H]3[C@H](O)C[C@@H]4C[C@H](O)CC[C@]4(C)[C@H]3CC[C@]12C,water,298,-3.64,mol/L