Solute,Solvent,Temperature_K,Solubility,Units
O=C1NC(=O)C(C(=O)N1)(C2=CC=CC=C2)C3=CC=CC=C3,water,298,-4.2,mol/L
C1COC2=C(OCCOCCOC3=C(OCCO1)C=CC=C3)C=CC=C2,water,298,-4.69,mol/L
N[S](=O)(=O)C1=CC2=C(S1)[S](=O)(=O)CCC2O,water,298,-1.36,mol/L
CC(C)OC(=O)C1(CCCCCC1)[S](=O)(=O)C2=CC=C(C=C2)[N+]([O-])=O,water,298,-5.07,mol/L
[O-][N+](=O)C1=CC=C(N[S](=O)(=O)C2=CC=CC=C2)C=C1,water,298,-3.93,mol/L
CN1C(=O)CN=C(C2=CC=CC=C2)C3=C1C=CC(=C3)Cl,water,298,-3.68,mol/L
CCCN(CCOC1=C(Cl)C=C(Cl)C=C1Cl)C(=O)[N]2C=CN=C2,water,298,-4.04,mol/L
COC1=CC=C(N[S](=O)(=O)C2=CC=C(N)C=C2)N=N1,water,298,-2.68,mol/L
CCO[P](=S)(OCC)SCN1C(=O)OC2=C1C=CC(=C2)Cl,water,298,-5.08,mol/L
CCN1C=C(C(O)=O)C(=O)C2=C1N=C(N=C2)N3CCNCC3,water,298,-2.98,mol/L
C1=CC2=C(C=C1)C=C3C=C4C=CC=CC4=CC3=C2,water,298,-8.69,mol/L
CC1=NN=C(N[S](=O)(=O)C2=CC=C(N)C=C2)S1,water,298,-2.16,mol/L
ClC1=C(Cl)C(=CC(=C1)C2=CC(=C(Cl)C(=C2)Cl)Cl)Cl,water,298,-8.85,mol/L
CC1=C(C(=O)NC2=CC=CC=C2)[S](=O)(=O)CCO1,water,298,-2.43,mol/L
CC1=C(Cl)C=C(N[S](=O)(=O)C2=CC=C(N)C=C2)C=C1,water,298,-4.91,mol/L
CC1=C(N[S](=O)(=O)C2=CC=C(N)C=C2)C=CC(=C1)Cl,water,298,-4.35,mol/L
CC(=O)OCC(=O)C1(O)C(CC2C3CCC4=CC(=O)C=CC4(C)C3(F)C(O)CC12C)OC(C)=O,water,298,-4.13,mol/L
OC(C1=CC=C(Cl)C=C1)(C2=CC=C(Cl)C=C2)C(Cl)(Cl)Cl,water,298,-5.67,mol/L
ClC1=CC=CC(=C1Cl)N[S](=O)(=O)C2=CC=CC=C2,water,298,-4.73,mol/L
CC1=C(C=CC(=C1)N)[S](=O)(=O)NC2=CC=C(Cl)C=C2,water,298,-4.42,mol/L
CC1=CC(=NC(=N1)C)N[S](=O)(=O)C2=CC=C(N)C=C2,water,298,-2.3,mol/L
ClC1=CC(=C(C=C1Cl)C2=CC(=C(Cl)C(=C2)Cl)Cl)Cl,water,298,-8.52,mol/L
CC1=CC=CC=C1N2C(=NC3=C(C=CC=C3)C2=O)C,water,298,-2.92,mol/L
CC1=CC(=NC(=N1)N[S](=O)(=O)C2=CC=C(N)C=C2)C,water,298,-2.27,mol/L
ClC1=CC=C(C2=CC(=C(Cl)C(=C2)Cl)Cl)C(=C1Cl)Cl,water,298,-9.1,mol/L
CC1=C(N[S](=O)(=O)C2=CC=C(N)C=C2)C=C(Cl)C=C1,water,298,-3.98,mol/L
ClC1=C(Cl)C=C(C=C1)C2=CC(=C(Cl)C(=C2Cl)Cl)Cl,water,298,-8.52,mol/L
CC1=CC(=C(N[S](=O)(=O)C2=CC=C(N)C=C2)C=C1)Cl,water,298,-4.32,mol/L
C1=CC2=CC3=CC=C4C=CC=CC4=C3C=C2C=C1,water,298,-7.36,mol/L
OC1N=C(C2=CC=CC=C2)C3=C(NC1=O)C=CC(=C3)Cl,water,298,-3.98,mol/L
ClC1=CC(=C(C=C1Cl)C2=CC(=C(Cl)C=C2Cl)Cl)Cl,water,298,-8.53,mol/L
ClC1=CC=C(C(=C1Cl)Cl)C2=C(Cl)C=C(Cl)C(=C2)Cl,water,298,-8.4,mol/L
[O-][N+](=O)C1=CC=CC=C1N[S](=O)(=O)C2=CC=CC=C2,water,298,-4.01,mol/L
ClC1=C(Cl)C=C(C=C1)C2=C(Cl)C=C(Cl)C(=C2Cl)Cl,water,298,-7.66,mol/L
CCC(C)(CC)C1=NOC(=C1)NC(=O)C2=C(OC)C=CC=C2OC,water,298,-5.52,mol/L
ClC1=C(Cl)C(=C(C=C1)C2=CC=C(Cl)C(=C2Cl)Cl)Cl,water,298,-8.78,mol/L
ClC1=CC(=C(Cl)C(=C1)C2=C(Cl)C=C(Cl)C(=C2)Cl)Cl,water,298,-8.58,mol/L
C1=CC2=C(C=C1)C3=C(C=C2)C4=C(C=CC=C4)C=C3,water,298,-8.06,mol/L
ClC1=CC=C(Cl)C(=C1Cl)C2=CC(=C(Cl)C(=C2)Cl)Cl,water,298,-8.27,mol/L
ClC1=C(Cl)C=C(C=C1)C2=C(Cl)C(=CC(=C2Cl)Cl)Cl,water,298,-8.48,mol/L
ClC1=CC(=C(C(=C1)Cl)C2=CC(=C(Cl)C=C2Cl)Cl)Cl,water,298,-8.12,mol/L
CC1=C(C=CC(=C1)N)[S](=O)(=O)NC2=C(Cl)C=CC=C2,water,298,-5.05,mol/L
ClC1=CC(=C(Cl)C=C1)C2=CC(=C(Cl)C(=C2Cl)Cl)Cl,water,298,-7.68,mol/L
ClC1=CC(=C(C(=C1)Cl)C2=CC=C(Cl)C(=C2Cl)Cl)Cl,water,298,-8.24,mol/L
COC1=CC(=C2C(=O)C3(OC2=C1Cl)C(C)CC(=O)C=C3OC)OC,water,298,-3.97,mol/L
ClC1=CC=CC(=C1Cl)C2=CC(=C(Cl)C(=C2Cl)Cl)Cl,water,298,-8.07,mol/L
ClC1=CC(=CC(=C1)C2=C(Cl)C(=CC(=C2Cl)Cl)Cl)Cl,water,298,-8.27,mol/L
COC(=O)C(C)OC1=CC=C(OC2=C(Cl)C=C(Cl)C=C2)C=C1,water,298,-3.82,mol/L
ClC1=CC(=C(Cl)C=C1)C2=C(Cl)C=C(Cl)C(=C2Cl)Cl,water,298,-8.01,mol/L
ClC1=CC=C(C(=C1Cl)Cl)C2=C(Cl)C(=CC=C2Cl)Cl,water,298,-7.65,mol/L
ClC1=CC(=C(C(=C1)Cl)C2=C(Cl)C=C(Cl)C=C2Cl)Cl,water,298,-8.71,mol/L
CCCC(=O)OCN1C=NC2=C(C=N[N]2COC(=O)CCC)C1=O,water,298,-3.83,mol/L
NC1=NC2=C(N=C(C3=CC=CC=C3)C(=N2)N)C(=N1)N,water,298,-3.95,mol/L
ClC1=CC=CC(=C1Cl)C2=C(Cl)C=C(Cl)C(=C2Cl)Cl,water,298,-8.48,mol/L
ClC1=C(Cl)C(=C(Cl)C(=C1)C2=C(Cl)C=CC=C2Cl)Cl,water,298,-8.13,mol/L
ClC1=CC(=C(Cl)C(=C1)C2=C(Cl)C(=CC=C2Cl)Cl)Cl,water,298,-7.82,mol/L
ClC1=CC(=C(Cl)C=C1)C2=C(Cl)C(=CC(=C2Cl)Cl)Cl,water,298,-7.42,mol/L
CC(C)(C)CC(=O)OCC(=O)C12OC(C)(C)OC1CC3C4CCC5=CC(=O)C=CC5(C)C4(F)C(O)CC23C,water,298,-5.12,mol/L
ClC1=CC=CC(=C1Cl)C2=C(Cl)C(=CC(=C2Cl)Cl)Cl,water,298,-8.6,mol/L
CC(C)NC(=O)N1CC(=O)N(C1=O)C2=CC(=CC(=C2)Cl)Cl,water,298,-4.41,mol/L
[O-][N+](=O)C1=CC=C2NC(=O)CN=C(C3=CC=CC=C3)C2=C1,water,298,-3.8,mol/L
CCN1C=CC(=NC1=O)N[S](=O)(=O)C2=CC=C(N)C=C2,water,298,-2.23,mol/L
ClC1=C(Cl)C(=C(Cl)C=C1)C2=C(Cl)C(=CC=C2Cl)Cl,water,298,-7.56,mol/L
CC1=CC=C(N[S](=O)(=O)C2=CC=C(C=C2)[N+]([O-])=O)N=C1,water,298,-4.29,mol/L
C1=CC2=C(C=C1)C3=C(C=CC=C3)C4=C2C=CC=C4,water,298,-6.74,mol/L
CC1OC(CC(O)C1O)OC2C(O)CC(OC2C)OC3C(O)CC(OC3C)OC4CCC5(C)C(CCC6C5CCC7(C)C(CCC67O)C8=CC(=O)OC8)C4,water,298,-5.29,mol/L
NC1=CC=C(C=C1)[S](=O)(=O)NC2=CC=C(C=C2)[N+]([O-])=O,water,298,-3.94,mol/L
ClC1=C(Cl)C2=C(OC3=C(O2)C=CC=C3)C(=C1)Cl,water,298,-7.53,mol/L
O=C1CCC(N2C(=O)C3=C(C=CC=C3)C2=O)C(=O)N1,water,298,-3.7,mol/L
CNC1=NC2=CC=C(Cl)C=C2C(=[N+]([O-])C1)C3=CC=CC=C3,water,298,-4.48,mol/L
NC1=CC=C(C(=C1)Cl)[S](=O)(=O)NC2=CC=C(Cl)C=C2,water,298,-4.59,mol/L
NC1=CC=C(C=C1)[S](=O)(=O)NC2=CC(=CC=C2Cl)Cl,water,298,-4.4,mol/L
NC1=CC=C(C=C1)[S](=O)(=O)NC2=CC=CC(=C2Cl)Cl,water,298,-4.73,mol/L
CCN1C=C(C(O)=O)C(=O)C2=C1C=C(N3CCN(C)CC3)C(=C2)F,water,298,-1.47,mol/L
COC(=O)C1=C(C)NC(=C(C1C2=C(C=CC=C2)[N+]([O-])=O)C(=O)OC)C,water,298,-4.8,mol/L
CC1=C(N=C2C=C(O)C(=O)C3=C2C=CC=C3)C(=NO1)C,water,298,-3.89,mol/L
N[S](=O)(=O)C1=CC2=C(S1)C(O)CC[S]2=O,water,298,-1.57,mol/L
CCCN(CCC)C1=C(C=C(C=C1[N+]([O-])=O)[S](N)(=O)=O)[N+]([O-])=O,water,298,-5.13,mol/L
NC1=CC=C(C=C1)[S](=O)(=O)NC2=CC=CC=C2[N+]([O-])=O,water,298,-4.49,mol/L
NC1=CC(=C(C=C1)[S](=O)(=O)NC2=CC=CC=C2Cl)Cl,water,298,-5.11,mol/L
COC(=O)C(C)N(C(=O)CC1=CC=CC=C1)C2=C(C)C=CC=C2C,water,298,-3.94,mol/L
CC1OC(CC(O)C1O)OC2C(O)CC(OC2C)OC3C(O)CC(OC3C)OC4CCC5(C)C(CCC6C5CC(O)C7(C)C(CCC67O)C8=CC(=O)OC8)C4,water,298,-4.45,mol/L
COC1=C(N[S](=O)(=O)C2=CC=C(N)C=C2)C=CC=C1Cl,water,298,-4.15,mol/L
CC(CN1C2=C(SC3=C1C=CC=C3)C=CC=C2)N(C)C,water,298,-4.39,mol/L
OC(=O)C1=CN(C2CC2)C3=C(C=C(F)C(=C3)N4CCNCC4)C1=O,water,298,-3.62,mol/L
CCC(=O)N(C1=CC=CC=C1)C2(CCN(CCC3=CC=CS3)CC2)COC,water,298,-3.71,mol/L
CCO[P](=S)(OCC)SC(CCl)N1C(=O)C2=C(C=CC=C2)C1=O,water,298,-6.34,mol/L
CN1CCN(CC1)C2=NC3=C(OC4=C2C=C(Cl)C=C4)C=CC=C3,water,298,-4.42,mol/L
CC1(C)C(C(=O)OC(C#N)C2=CC(=CC=C2)OC3=CC=CC=C3)C1(C)C,water,298,-6.03,mol/L
CC(=O)OCN1C(=O)NC(C1=O)(C2=CC=CC=C2)C3=CC=CC=C3,water,298,-4.47,mol/L
COC(=O)C1=CC(=CC=C1[N+]([O-])=O)OC2=CC=C(Cl)C=C2Cl,water,298,-5.99,mol/L
CN1C(=O)CCC(N2C(=O)C3=C(C=CC=C3)C2=O)C1=O,water,298,-2.99,mol/L
NC1=CC=C(C=C1)[S](=O)(=O)NC2=CC=C(I)C=C2,water,298,-4.52,mol/L
ClC1=CC(=CC(=C1Cl)Cl)C2=C(Cl)C(=C(Cl)C(=C2)Cl)Cl,water,298,-8.72,mol/L
CO[P](=S)(OC)SCN1N=NC2=CC=CC=C2C1=O,water,298,-4.04,mol/L
COC(=O)NC1=NC2=CC(=CC=C2[NH]1)C(=O)C3=CC=CC=C3,water,298,-3.88,mol/L
C[S](=O)(=O)NC1=C(OC2=CC=CC=C2)C=C(C=C1)[N+]([O-])=O,water,298,-1.65,mol/L
C[N]1C=NC(=C1SC2=NC=NC3=C2[NH]C=N3)[N+]([O-])=O,water,298,-3.21,mol/L
CC1N(CN2C(=O)C3=C(C=CC=C3)N=C12)CC4=CC=CC=C4,water,298,-4.0,mol/L
CCOC1=C(C=CC(=C1)OC2=C(Cl)C=C(C=C2)C(F)(F)F)[N+]([O-])=O,water,298,-6.49,mol/L
CCC1=C(N=C2C=C(O)C(=O)C3=C2C=CC=C3)C(=NO1)C,water,298,-2.72,mol/L
ClC1=CC(=C(C=C1Cl)C2=C(Cl)C=C(Cl)C(=C2Cl)Cl)Cl,water,298,-7.92,mol/L
OC1N=C(C2=CC=CC=C2Cl)C3=CC(=CC=C3NC1=O)Cl,water,298,-3.6,mol/L
ClC1=CC=C(C(=C1Cl)Cl)C2=C(Cl)C(=C(Cl)C=C2Cl)Cl,water,298,-8.3,mol/L
ClC1=CC=C(CCC(C[N]2C=NC=N2)(C#N)C3=CC=CC=C3)C=C1,water,298,-6.23,mol/L
CCOC1=CC=C(N[S](=O)(=O)C2=CC=C(C=C2)[N+]([O-])=O)C=C1,water,298,-4.72,mol/L
ClC1=CC(=C(C=C1Cl)C2=C(Cl)C(=CC(=C2Cl)Cl)Cl)Cl,water,298,-7.94,mol/L
ClC1=CC2=C(OC3=C(O2)C=C(Cl)C(=C3)Cl)C=C1Cl,water,298,-10.22,mol/L
CC(C)=C1OC(=O)N(C1=O)C2=C(F)C=C(Cl)C(=C2)OC3CCCC3,water,298,-6.21,mol/L
CCC(=O)OCN1C(=O)NC(C1=O)(C2=CC=CC=C2)C3=CC=CC=C3,water,298,-4.91,mol/L
ClC1=C(Cl)C2=C(C(=C1Cl)Cl)C(=C(Cl)C(=C2Cl)Cl)Cl,water,298,-9.7,mol/L
ClC1=CC=C(Cl)C(=C1)C2=C(Cl)C(=C(Cl)C(=C2Cl)Cl)Cl,water,298,-8.46,mol/L
CC1=C(C=CC(=C1)N)[S](=O)(=O)NC2=C(C=CC=C2)[N+]([O-])=O,water,298,-4.51,mol/L
ClC1=CC2=C(OC3=C(O2)C=C(Cl)C(=C3Cl)Cl)C=C1,water,298,-8.89,mol/L
CC1=C2C=CC3=C(C=CC=C3)C2=C(C)C4=C1C=CC=C4,water,298,-6.78,mol/L
N[S](=O)(=O)C1=CC(=C(NCC2=CC=CO2)C=C1Cl)C(O)=O,water,298,-4.44,mol/L
FC1=C(C(=CC=C1)F)C2=NN=C(N=N2)C3=C(Cl)C=CC=C3,water,298,-6.12,mol/L
[O-][N+](=O)C1=CC2=C(NC(=O)CN=C2C3=CC=CC=C3Cl)C=C1,water,298,-3.5,mol/L
C1CN(CCN1C\C=C\C2=CC=CC=C2)C(C3=CC=CC=C3)C4=CC=CC=C4,water,298,-4.2,mol/L
CCCC1=C(N=C2C=C(O)C(=O)C3=C2C=CC=C3)C(=NO1)C,water,298,-3.7,mol/L
CCCC(=O)OCN1C(=O)NC(C1=O)(C2=CC=CC=C2)C3=CC=CC=C3,water,298,-5.07,mol/L
NC1=CC=C(C=C1)[S](=O)(=O)NC2=C(Cl)C=C(Cl)C(=C2)Cl,water,298,-4.83,mol/L
ClC1=C(Cl)C2=C(OC3=C(O2)C=CC=C3)C(=C1Cl)Cl,water,298,-8.92,mol/L
BrC1=CC=C(N[S](=O)(=O)C2=CC=CC=C2)C(=C1)Br,water,298,-5.01,mol/L
OC1=C(CC2=C(O)C(=CC(=C2Cl)Cl)Cl)C(=C(Cl)C=C1Cl)Cl,water,298,-3.46,mol/L
OC(C1=CC=C(F)C=C1)(C2=CN=CN=C2)C3=C(Cl)C=CC=C3,water,298,-4.08,mol/L
N[S](=O)(=O)C1=CC2=C(C=C1Cl)N=CN[S]2(=O)=O,water,298,-2.92,mol/L
N[S](=O)(=O)C1=CC2=C(NCN[S]2(=O)=O)C=C1Cl,water,298,-2.67,mol/L
CN(C)CC\C=C/1C2=C(SC3=C1C=C(Cl)C=C3)C=CC=C2,water,298,-5.87,mol/L
N[S](=O)(=O)C1=CC2=C(CC(O)C[S]2(=O)=O)S1,water,298,-1.59,mol/L
CCCCC(=O)OCN1C(=O)NC(C1=O)(C2=CC=CC=C2)C3=CC=CC=C3,water,298,-4.68,mol/L
N[S](=O)(=O)C1=CC2=C(S1)[S](=O)(=O)CC(O)C2,water,298,-1.54,mol/L
N[S](=O)(=O)C1=CC2=C(S1)C(=O)CC[S]2(=O)=O,water,298,-3.67,mol/L
N[S](=O)(=O)C1=CC2=C(S1)C(O)CC[S]2(=O)=O,water,298,-1.28,mol/L
CCCN1C(=O)CCC(N2C(=O)C3=C(C=CC=C3)C2=O)C1=O,water,298,-3.72,mol/L
N[S](=O)(=O)C1=CC2=C(S1)[S](=O)(=O)CCC2=O,water,298,-3.02,mol/L
CCCCC1C(=O)N(N(C1=O)C2=CC=CC=C2)C3=CC=CC=C3,water,298,-4.39,mol/L
CC1(O)CC(C2=CC=CC=C2)C3=C(O1)C4=C(OC3=O)C=CC=C4,water,298,-4.74,mol/L
CC1=C2CCC3=C2C(=CC4=C3C=CC5=C4C=CC=C5)C=C1,water,298,-7.96,mol/L
CC(=O)OCC1=C(N2C(SC1)C(NC(=O)CC3=CC=CS3)C2=O)C(O)=O,water,298,-2.94,mol/L
OC(C1=CC=C(Cl)C=C1)(C2=CN=CN=C2)C3=C(Cl)C=CC=C3,water,298,-4.38,mol/L
CCC1OC(=O)C(C)C(OC2CC(C)(OC)C(O)C(C)O2)C(C)C(OC3OC(C)CC(C3O)N(C)C)C(C)(O)CC(C)C(=O)C(C)C(O)C1(C)O,water,298,-1.27,mol/L
ClC1=CC(=C(Cl)C(=C1Cl)Cl)C2=CC(=C(Cl)C(=C2Cl)Cl)Cl,water,298,-9.16,mol/L
N[S](=O)(=O)C1=CC(=CC=C1Cl)C2(O)NC(=O)C3=C2C=CC=C3,water,298,-3.45,mol/L
CCCCCC1=C(N=C2C=C(O)C(=O)C3=C2C=CC=C3)C(=NO1)C,water,298,-3.18,mol/L
CCO/N=C(OC(=O)C1=CC=CC=C1)/C2=C(OC)C(=CC=C2OC)Cl,water,298,-4.08,mol/L
CC1COC2=C(N3CCN(C)CC3)C(=CC4=C2N1C=C(C(O)=O)C4=O)F,water,298,-1.27,mol/L
COC1=CC2=C(C=C1OC)C(=NC(=N2)N3CCN(CC3)C(=O)C4CCCO4)N,water,298,-1.8,mol/L
CCN1C(=C(N=NC2=C(C=C(Cl)C=C2)[N+]([O-])=O)C(=C(C#N)C1=O)C)O,water,298,-6.69,mol/L
COC1=CC2=C(SC3=C(C=CC=C3)N2CC(C)CN(C)C)C=C1,water,298,-4.37,mol/L
ClC1=C(Cl)C(=C(Cl)C(=C1)Cl)C2=C(Cl)C(=CC(=C2Cl)Cl)Cl,water,298,-9.38,mol/L
CCC1OC(=O)C(C)C(OC2CC(C)(OC)C(O)C(C)O2)C(C)C(OC3OC(C)CC(C3O)N(C)C)C(C)(CC(C)C(=O)C(C)C(O)C1(C)O)OC,water,298,-2.2,mol/L
CC1=C(NC(=O)C2=CC(=C(Cl)C=C2O)[S](N)(=O)=O)C(=CC=C1)C,water,298,-3.9,mol/L
CC(=O)NC1=C(N[S](=O)(=O)C2=CC=C(C=C2)[N+]([O-])=O)C=NC=C1,water,298,-3.39,mol/L
C1=CC2=CC3=C(C=C2C=C1)C4=CC=CC5=CC=CC3=C45,water,298,-8.52,mol/L
CCCCCN1C(=O)CCC(N2C(=O)C3=C(C=CC=C3)C2=O)C1=O,water,298,-4.7,mol/L
CC1=CN(C2CC(N=[N+]=[N-])C(COC(=O)C3=CC=NC=C3)O2)C(=O)NC1=O,water,298,-2.72,mol/L
ClC1=CC2=C(OC3=C(O2)C(=C(Cl)C(=C3Cl)Cl)Cl)C=C1,water,298,-9.48,mol/L
C1=CC2=C(C=C1)C3=C4C(=C2)C=CC5=CC=CC(=C45)C=C3,water,298,-8.2,mol/L
COC1=CC=C2C(=CC1=O)C(CCC3=C2C(=C(OC)C(=C3)OC)OC)NC(C)=O,water,298,-0.94,mol/L
CCOC(=O)C(C)OC1=CC=C(OC2=NC3=C(O2)C=C(Cl)C=C3)C=C1,water,298,-5.6,mol/L
CC(C)O[P](=S)(OC(C)C)SCCN[S](=O)(=O)C1=CC=CC=C1,water,298,-4.2,mol/L
CC1=NN=C2CN=C(C3=CC=CC=C3)C4=C(C=CC(=C4)Cl)[N]12,water,298,-3.6,mol/L
C1=CC2=C3C(=C1)C=CC=C3C4=CC=CC5=CC=CC2=C45,water,298,-8.7,mol/L
C1=CC2=C3C=CC=C4C=CC5=CC=CC(=C2C=C1)C5=C34,water,298,-7.66,mol/L
NC1=CC=C(C=C1)[S](=O)(=O)NC2=CC=N[N]2C3=CC=CC=C3,water,298,-2.32,mol/L
COC1=CC2=C(N)N=C(N=C2C(=C1OC)OC)N3CCN(CC3)C(=O)OCC(C)(C)O,water,298,-3.64,mol/L
N[S](=O)(=O)C1=C(C=C2NCN[S](=O)(=O)C2=C1)C(F)(F)F,water,298,-3.04,mol/L
COC1=C2C(=O)C3=C(C=CC=C3)N(C)C2=C4C=CC(C)(C)OC4=C1,water,298,-5.21,mol/L
OC(=O)CC1=C(N=C(S1)C2=CC=CC=C2)C3=CC=C(Cl)C=C3,water,298,-4.96,mol/L
OC1=CC=C(C=C1)C2(OC(=O)C3=C2C=CC=C3)C4=CC=C(O)C=C4,water,298,-2.89,mol/L
ClC1=C(Cl)C(=C(Cl)C(=C1)C2=C(Cl)C(=C(Cl)C(=C2Cl)Cl)Cl)Cl,water,298,-9.62,mol/L
CCOC(=O)C1=C[N]2N=C(O[P](=S)(OCC)OCC)C=C2N=C1C,water,298,-4.95,mol/L
O=[P](OC1=CC=CC=C1)(OC2=CC=CC=C2)OC3=CC=CC=C3,water,298,-5.66,mol/L
ClC1=CC(=C(C(=C1Cl)Cl)C2=C(Cl)C(=C(Cl)C(=C2Cl)Cl)Cl)Cl,water,298,-10.1,mol/L
ClC1=C(Cl)C(=C(Cl)C(=C1)Cl)C2=C(Cl)C(=C(Cl)C(=C2Cl)Cl)Cl,water,298,-10.42,mol/L
ClC1=CC2=C(OC3=C(O2)C(=C(Cl)C(=C3Cl)Cl)Cl)C=C1Cl,water,298,-10.95,mol/L
CSC1=CC2=C(SC3=C(C=CC=C3)N2CCC4CCCCN4C)C=C1,water,298,-5.82,mol/L
CCN(CC1=C(Cl)C=CC=C1F)C2=C(C=C(C=C2[N+]([O-])=O)C(F)(F)F)[N+]([O-])=O,water,298,-6.78,mol/L
C1=CC2=C(C=C1)C3=CC4=C(C=C3C=C2)C5=C(C=CC=C5)C=C4,water,298,-8.67,mol/L
CC\1=C(CC(O)=O)C2=CC(=CC=C2C1=C\C3=CC=C(C=C3)[S](C)=O)F,water,298,-5.0,mol/L
ClC1=CC=C(CSC(C[N]2C=NC=N2)=NC3=C(Cl)C=C(Cl)C=C3)C=C1,water,298,-5.38,mol/L
CC(C)(C)C1=CC=C(C=C1)C(O)CCCN2CCC(CC2)C(O)(C3=CC=CC=C3)C4=CC=CC=C4,water,298,-6.69,mol/L
CC1=CC2=C(C=C1C)N(CC(O)C(O)C(O)CO)C3=NC(=O)NC(=O)C3=N2,water,298,-3.58,mol/L
ClC1=CC2=C(OC3=C2C(=C(Cl)C(=C3Cl)Cl)Cl)C(=C1Cl)Cl,water,298,-11.48,mol/L
CCOC(=O)C(C)OC1=CC=C(OC2=NC3=C(S2)C=C(Cl)C=C3)C=C1,water,298,-5.67,mol/L
COC1=CC=C2[N](C(=C(CC(O)=O)C2=C1)C)C(=O)C3=CC=C(Cl)C=C3,water,298,-4.62,mol/L
CC1=NN=C2CN=C(C3=CC=CC=C3Cl)C4=C(C=CC(=C4)Cl)[N]12,water,298,-4.08,mol/L
COC1=CC2=C(C=C1OC)C3C(CO2)OC4=C(C=CC5=C4CC(O5)C(C)=C)C3=O,water,298,-4.47,mol/L
CC1(C)CNC(NC1)=N\N=C(/C=C/C2=CC=C(C=C2)C(F)(F)F)\C=C\C3=CC=C(C=C3)C(F)(F)F,water,298,-7.92,mol/L
CN1C(CCl)NC2=C(C=C(C(=C2)Cl)[S](N)(=O)=O)[S]1(=O)=O,water,298,-3.78,mol/L
CC(OC1=CC=C(OC2=NC3=C(C=C(Cl)C=C3)N=C2)C=C1)C(=O)OC4CCCO4,water,298,-5.02,mol/L
CN(C)C1C2CC3C(=C(O)C2(O)C(=O)C(=C1O)C(N)=O)C(=O)C4=C(C=CC=C4O)C3(C)O,water,298,-3.28,mol/L
ClC1=C(Cl)C(=C(C(=C1Cl)Cl)C2=C(Cl)C(=C(Cl)C(=C2Cl)Cl)Cl)Cl,water,298,-10.82,mol/L
CC(=O)NCC1=C(I)C(=C(I)C(=C1I)NC(C)=O)C(O)=O,water,298,-2.32,mol/L
N[S](=O)(=O)C1=C(Cl)C=C2NC(N[S](=O)(=O)C2=C1)C(Cl)Cl,water,298,-3.18,mol/L
COC(=O)C1=C(C=CS1)[S](=O)(=O)NC(=O)NC2=NC(=NC(=N2)C)OC,water,298,-2.21,mol/L
COC(=O)C1=C(C[S](=O)(=O)NC(=O)NC2=NC(=CC(=N2)OC)OC)C=CC=C1,water,298,-3.53,mol/L
CCOC(=O)C1=CC=CC=C1[S](=O)(=O)NC(=O)NC2=NC(=CC(=N2)OC)Cl,water,298,-4.58,mol/L
ClC1=C(Cl)C(=C2OC3=C(OC2=C1)C(=C(Cl)C(=C3Cl)Cl)Cl)Cl,water,298,-11.65,mol/L
CN1C(=C(O)C2=C(C=CC=C2)[S]1(=O)=O)C(=O)NC3=CC=CC=N3,water,298,-4.5,mol/L
CC1=CC=C(C=C1)C2=CC(=N[N]2C3=CC=C(C=C3)[S](N)(=O)=O)C(F)(F)F,water,298,-4.74,mol/L
CN(C)C1C2C(O)C3C(=C(O)C2(O)C(=O)C(=C1O)C(N)=O)C(=O)C4=C(C=CC=C4O)C3(C)O,water,298,-3.15,mol/L
ClC1=C(Cl)C2=C(C(=C1Cl)Cl)C3=C(O2)C(=C(Cl)C(=C3Cl)Cl)Cl,water,298,-11.58,mol/L
OC1=C(CC2=C(O)C3=CC=CC=C3OC2=O)C(=O)OC4=C1C=CC=C4,water,298,-4.27,mol/L
CC(C)C(C(=O)OC(C#N)C1=CC(=CC=C1)OC2=CC=CC=C2)C3=CC=C(Cl)C=C3,water,298,-8.32,mol/L
C1=CC2=C3C(=C1)C=CC4=C3C5=C(C=CC6=CC=CC2=C56)C=C4,water,298,-9.03,mol/L
CC(OC1=CC=C(OC2=NC3=CC=C(Cl)C=C3N=C2)C=C1)C(=O)OCCON=C(C)C,water,298,-5.85,mol/L
ClC1=C(Cl)C(=C2OC3=C(OC2=C1Cl)C(=C(Cl)C(=C3Cl)Cl)Cl)Cl,water,298,-12.79,mol/L
C[N]1N=C(C)C(=C1OCC(=O)C2=CC=C(C)C=C2)C(=O)C3=CC=C(Cl)C(=C3Cl)C,water,298,-6.52,mol/L
CN1C(=C(O)C2=CC=CC=C2[S]1(=O)=O)C(=O)NC3=NC=C(C)S3,water,298,-1.92,mol/L
CN(C)C(CS[S](=O)(=O)C1=CC=CC=C1)CS[S](=O)(=O)C2=CC=CC=C2,water,298,-5.76,mol/L
CC(C)(C)C1=CC(=CC(=C1SC(C)(C)SC2=C(C=C(O)C=C2C(C)(C)C)C(C)(C)C)C(C)(C)C)O,water,298,-8.17,mol/L
CCOC(=O)NC1=CC2=C(SC3=C(C=CC=C3)N2C(=O)CCN4CCOCC4)C=C1,water,298,-3.9,mol/L
CO[P](=S)(OC)OC1=CC=C(SC2=CC=C(O[P](=S)(OC)OC)C=C2)C=C1,water,298,-7.19,mol/L
FC1=C(NC(=O)NC(=O)C2=C(F)C=CC=C2F)C=CC(=C1)OC3=CC=C(C=C3Cl)C(F)(F)F,water,298,-8.09,mol/L
COC(=O)C1=CC=C(N=C1[S](=O)(=O)NC(=O)NC2=NC(=CC(=N2)OC)OC)C(F)(F)F,water,298,-3.89,mol/L
CN(CC1=NC2=C(N=C1)N=C(N)N=C2N)C3=CC=C(C=C3)C(=O)NC(CCC(O)=O)C(O)=O,water,298,-4.0,mol/L
C[N]1N=C(C)C(=C1O[S](=O)(=O)C2=CC=C(C)C=C2)C(=O)C3=C(Cl)C=C(Cl)C=C3,water,298,-6.9,mol/L
C1=CC2=C3C4=C1C=CC5=C4C6=C(C=C5)C=CC7=C6C3=C(C=C2)C=C7,water,298,-8.83,mol/L
COC1=C(C=C(NC(C)=O)C(=C1)N=NC2=C(Br)C=C(C=C2[N+]([O-])=O)[N+]([O-])=O)N(CCC#N)CC=C,water,298,-8.9,mol/L
COC1=CC(=CC(=C1O)OC)C2C3C(COC3=O)C(OC4OC5COC(C)OC5C(O)C4O)C6=C2C=C7OCOC7=C6,water,298,-3.47,mol/L
BrC1=C(Br)C(=C(OC2=C(Br)C(=C(Br)C(=C2Br)Br)Br)C(=C1Br)Br)Br,water,298,-9.98,mol/L
CCC1NC(=O)C(C(O)C(C)C\C=C\C)N(C)C(=O)C(C(C)C)N(C)C(=O)C(CC(C)C)N(C)C(=O)C(CC(C)C)N(C)C(=O)C(C)NC(=O)C(C)NC(=O)C(CC(C)C)N(C)C(=O)C(NC(=O)C(CC(C)C)N(C)C(=O)CN(C)C1=O)C(C)C,water,298,-4.64,mol/L
N#CCC#N,water,298,0.25,mol/L
CC(C)N(N=O)C(C)C,water,298,-1.0,mol/L
NC(=O)CCl,water,298,0.03,mol/L
CC(C)(C)C(O)=O,water,298,-0.67,mol/L
N#CCCC#N,water,298,0.2,mol/L
CNCC(O)=O,water,298,0.53,mol/L
CC(C)(O)C(Cl)(Cl)Cl,water,298,-1.35,mol/L
OC(=O)C1CCCCC1,water,298,-1.81,mol/L
CN(N=O)C(N)=O,water,298,-0.86,mol/L
C[S](C)(=O)=O,water,298,0.2,mol/L
CCCCCCCCCCC(O)=O,water,298,-3.3,mol/L
OC(=O)CCCCCC(O)=O,water,298,-0.51,mol/L
CSC1=NN=C(C(=O)N1N)C(C)(C)C,water,298,-2.31,mol/L
NC(CC(O)=O)C(O)=O,water,298,-1.5,mol/L
NC1=NC=CC=C1,water,298,0.98,mol/L
OC1=CC=CN=C1,water,298,-0.46,mol/L
O=C1NC=CC=C1,water,298,1.02,mol/L
N#CC1=CC=NC=C1,water,298,-0.42,mol/L
N#CC1=CC=CN=C1,water,298,0.11,mol/L
OC1=CC=C(F)C=C1,water,298,-0.21,mol/L
CC(=C\CO)/C=C/C=C(C)/C=C/C1=C(C)CCCC1(C)C,water,298,-3.81,mol/L
NC1=CC=CC(=C1)O,water,298,-0.64,mol/L
O=C1C=CC(=O)C=C1,water,298,-0.89,mol/L
CO[P](N)(=O)SC,water,298,0.85,mol/L
OC(=O)C1=CC=CO1,water,298,-0.5,mol/L
CC1=C(C)C=C(N)C=C1,water,298,-1.5,mol/L
NC1=CC=C(Cl)C=C1,water,298,-1.69,mol/L
OC1=CC=C(Cl)C=C1,water,298,-0.69,mol/L
CCC(Br)(CC)C(=O)NC(N)=O,water,298,-2.68,mol/L
OC1=CC(=CC=C1)Cl,water,298,-0.71,mol/L
COC1=CC=C(N)C=C1,water,298,-0.77,mol/L
CCC(CC)(C(=O)NC(N)=O)C(=O)OC,water,298,-1.96,mol/L
COC1=CC=C(O)C=C1,water,298,-0.67,mol/L
CC(C)OC(=O)C(C(=O)OC(C)C)=C1SCCS1,water,298,-3.78,mol/L
CCOC(=O)C(CC)(CC)C(=O)NC(N)=O,water,298,-2.08,mol/L
OC(=O)C1=CC=NC=C1,water,298,-1.37,mol/L
OC(=O)C1C2CCC(O2)C1C(O)=O,water,298,-0.27,mol/L
OC(=O)C1=CC=CC=N1,water,298,0.89,mol/L
CCOC1=CC=C(O)C=C1,water,298,-1.29,mol/L
CC1=NC=C([NH]1)[N+]([O-])=O,water,298,-1.63,mol/L
CCC(CC)(C(=O)NC(N)=O)C(=O)OC(C)C,water,298,-2.77,mol/L
CC1=CC(=O)NC(=O)N1,water,298,-1.26,mol/L
CCC(CC)(C(=O)NC(N)=O)C(=O)OCOC,water,298,-2.17,mol/L
NC(=S)C1=CC=CC=C1,water,298,-1.92,mol/L
NC1=NC(=NC(=N1)N)N,water,298,-1.59,mol/L
ClCCN(N=O)C(=O)NC1CCCCC1,water,298,-3.37,mol/L
COC(=O)C1=CN=CC=C1,water,298,-0.46,mol/L
O=C1CC(=O)NC(=O)N1,water,298,-1.29,mol/L
CC(=O)C1=CC=C(N)C=C1,water,298,-1.21,mol/L
CC1=CC=C(C=C1)[N+]([O-])=O,water,298,-2.49,mol/L
COC(=O)C(CC=C)(CC=C)C(=O)NC(N)=O,water,298,-2.17,mol/L
CC(=O)C1=CC=C(O)C=C1,water,298,-1.13,mol/L
OC1=CC2=C(CCCC2)C=C1,water,298,-1.99,mol/L
NC1=CC=CC(=C1)C(O)=O,water,298,-1.45,mol/L
NC1=CC(=C(Cl)C=C1)Cl,water,298,-3.25,mol/L
CC1=C(Cl)C(=CC(=C1)O)C,water,298,-2.67,mol/L
OCNC(=O)C1=CC=CC=C1,water,298,-0.52,mol/L
OC1=C(Cl)C=C(Cl)C=C1,water,298,-1.56,mol/L
NC1=CC=C(C=C1)[N+]([O-])=O,water,298,-2.28,mol/L
C[N]1C(=NC=C1[N+]([O-])=O)C,water,298,-1.16,mol/L
CCC1=CC=C(C=C1)C(O)=O,water,298,-2.52,mol/L
OC(=O)CCCCC1=CC=CC=C1,water,298,-2.0,mol/L
CC(C)C1=NC(=C[NH]1)[N+]([O-])=O,water,298,-1.15,mol/L
COC1=CC=C(C=C1)C(N)=O,water,298,-1.72,mol/L
[O-][N+](=O)C1=CC=C(Cl)C=C1,water,298,-2.84,mol/L
COC1=CC=CC(=C1)C(N)=O,water,298,-1.72,mol/L
[O-][N+](=O)C1=CC=CC(=C1)Cl,water,298,-2.76,mol/L
[NH]1N=CC2=C1C=CC=C2,water,298,-2.16,mol/L
[NH]1C=NC2=C1C=CC=C2,water,298,-1.77,mol/L
COC1=CC=C(C=C1)[N+]([O-])=O,water,298,-2.42,mol/L
CC(C)(C)C(=O)OCN1C=C(F)C(=O)N(COC(=O)C(C)(C)C)C1=O,water,298,-3.9,mol/L
O1C=NC2=C1C=CC=C2,water,298,-1.16,mol/L
CN(C)CNC(=O)C1=CC=CC=C1,water,298,0.42,mol/L
CC1=C(C=CC(=C1)O)[N+]([O-])=O,water,298,-2.11,mol/L
OC1=CC=C(I)C=C1,water,298,-1.71,mol/L
CC1=CC(=C(C=C1)[N+]([O-])=O)O,water,298,-2.75,mol/L
CC1=CC(=C(O)C=C1)[N+]([O-])=O,water,298,-2.55,mol/L
[NH]1C=NC2=C1C=NC=N2,water,298,0.62,mol/L
OCC(C(O)=O)C1=CC=CC=C1,water,298,-0.93,mol/L
O=CC1=CC2=C(OCO2)C=C1,water,298,-1.63,mol/L
CC1=CC=CC(=C1[N+]([O-])=O)O,water,298,-1.64,mol/L
CCCCC1=CC=C(C=C1)C(O)=O,water,298,-3.08,mol/L
CC(=O)OCN1C=C(F)C(=O)N(COC(C)=O)C1=O,water,298,-1.81,mol/L
CCOC(=O)C(C)(C(=O)NC(=O)NC)C1=CCCCC1,water,298,-3.0,mol/L