Solute,Solvent,Temperature_K,Solubility,Units
CC(NC(=O)c1ccccc1)C(O)=O,water,298,-1.6839,mol/L
COC(=O)CNC(=O)c1ccccc1,water,298,-1.0556,mol/L
CN1c2ccccc2Sc3ccccc13,water,298,-5.5934,mol/L
C(Nc1ncnc2nc[nH]c12)c3ccccc3,water,298,-3.5745,mol/L
CCCCCCCCOC(=O)c1ccc(O)cc1,water,298,-4.2224,mol/L
CC1COCc2cc3c(cc12)C(C)(C)C(C)C3(C)C,water,298,-5.1693,mol/L
[Br-].CC[n+]1c2cc(N)ccc2c3ccc(N)cc3c1c4ccccc4,water,298,-1.2948,mol/L
CCCCC(CC)CO[P](=O)(Oc1ccccc1)Oc2ccccc2,water,298,-5.2804,mol/L
CN1N(C(=O)C(=C1C)CC2=C(C)N(C)N(C2=O)c3ccccc3)c4ccccc4,water,298,-2.9549,mol/L
Cc1c(C(O)=O)c(O)cc2C(=O)c3c(O)c(O)c([C@H]4O[C@H](CO)[C@@H](O)[C@H](O)[C@H]4O)c(O)c3C(=O)c12,water,298,-2.5784,mol/L
Cc1cccc2ccccc12,water,298,-3.755,mol/L
Cc1cccc(C)c1,water,298,-3.0007,mol/L
Cc1ccc(O[P](=O)(Oc2ccc(C)cc2)Oc3ccc(C)cc3)cc1,water,298,-6.01,mol/L
CC(C)C(C)C(C)C(O)C#CC(C)C(C)O,water,298,-2.2756,mol/L
Cc1c(C(O)=O)c(O)cc2C(=O)c3c(O)c(O)c(C4OC(CO)C(O)C(O)C4O)c(O)c3C(=O)c12,water,298,-2.5784,mol/L
OC[C@H]1O[C@H]([C@H](O)[C@@H](O)[C@@H]1O)[C@@H]2c3cccc(O)c3C(=O)c4c(O)cc(CO)cc24,water,298,-1.7025,mol/L
NCCO.Oc1ccc(Cl)cc1C(=O)Nc2ccc(cc2Cl)[N+]([O-])=O,water,298,-3.5891,mol/L
C1CN(CCO1)C(c2ccccc2)(c3ccccc3)c4ccccc4,water,298,-7.2168,mol/L
CC(C)(C)c1cc(cc(c1O)[N+]([O-])=O)[N+]([O-])=O,water,298,-4.7274,mol/L
[O-][N+](=O)c1ccc(NN=C2C=CC(=O)C=C2)cc1,water,298,-4.796,mol/L
NC(=O)c1ccccn1,water,298,0.1685,mol/L
CCCCCCCCCCCCCCCCCO,water,298,-7.506,mol/L
CC1CN(CC(C)O1)N=O,water,298,-0.0655,mol/L
COC(=O)c1cccc(c1)C(=O)OC,water,298,-2.8258,mol/L
Cc1ccc(C)c(C)n1,water,298,-0.5893,mol/L
Oc1ccc2CCCc2c1,water,298,-1.3285,mol/L
ClC\C=C/CCl,water,298,-2.3333,mol/L
CC[C@@H]1CCCCN1,water,298,-0.3463,mol/L
CC(C)C1CCC(C)CC1O,water,298,-2.5706,mol/L
O=C1CCCCC1C2=CCCCC2,water,298,-2.774,mol/L
CC(=O)Oc1ccc(Br)cc1C(O)=O,water,298,-2.5895,mol/L
CC(O)c1ccccc1,water,298,-0.9205,mol/L
CCN(CC)C(=O)CCC(O)=O,water,298,-0.7937,mol/L
CNC(=O)Oc1cccc2CC(C)(C)Oc12,water,298,-2.8398,mol/L
COc1ccc(NC(N)=O)cc1,water,298,-1.5917,mol/L
COc1ccc(O)c(c1)[N+]([O-])=O,water,298,-2.8409,mol/L
CCCOCC(C)O,water,298,0.9275,mol/L
C/C=C/C(C)O,water,298,0.0152,mol/L
Cc1cc(Cl)ccc1O,water,298,-1.552,mol/L
Cc1cc(Cl)cc(Cl)c1O,water,298,-2.0439,mol/L
NC(=O)c1cccc(c1)[S](N)(=O)=O,water,298,-2.1554,mol/L
OC(=O)C=C(Br)Br,water,298,-0.8358,mol/L
CCCN(CCC)c1c(cc(cc1[N+]([O-])=O)C(F)(F)F)[N+]([O-])=O,water,298,-6.2606,mol/L
CC(NC(N)=O)NC(N)=O,water,298,-0.5916,mol/L
NC(=O)NN=C1CCCCC1,water,298,-1.4127,mol/L
OC(=O)CCC(=O)c1ccc2ccccc2c1,water,298,-3.8533,mol/L
CN(C)NC(=O)CCC(O)=O,water,298,-0.2046,mol/L
OCC(CO[N+]([O-])=O)(CO[N+]([O-])=O)CO[N+]([O-])=O,water,298,-1.585,mol/L
CCNc1nc(NC(C)C)nc(OC)n1,water,298,-2.0696,mol/L
C=C\C=C/C#N,water,298,-0.7221,mol/L
[O-][N+](=O)c1ccc2NC(=O)CN=C(c3ccccc3Cl)c2c1,water,298,-3.4993,mol/L
CN(C)C1CSSC1,water,298,-1.873,mol/L
CCOC(=O)CC(S[P](=O)(OC)OC)C(=O)OCC,water,298,-1.6223,mol/L
CCCCCCCS,water,298,-4.1549,mol/L
CNC(=O)O\N=C\C(C)(C)[S](C)=O,water,298,-0.8673,mol/L
CNC(=O)O\N=C\C(C)(C)[S](C)(=O)=O,water,298,-1.3469,mol/L
FC(F)(Cl)CCl,water,298,-2.2007,mol/L
CCCCCCCCCC(C)O,water,298,-2.9418,mol/L
CC(C)CCCCCO,water,298,-2.3038,mol/L
Cc1cnc2c(ccc3c(C)c(C)cnc23)c1C,water,298,-5.1939,mol/L
CN(C)CC\C=C1/c2ccccc2COc3ccccc13,water,298,-3.9469,mol/L
CCC1CCCCC1,water,298,-4.2507,mol/L
CC1(C)C2CC3OC3(C)C1C2,water,298,-2.5937,mol/L
CC1(C)OC(=O)c2ccccc12,water,298,-1.8684,mol/L
O=C1C=CC(C=C1)=NNc2ccccc2,water,298,-3.3429,mol/L
Oc1c(I)cc(cc1I)C#N,water,298,-3.8703,mol/L
Oc1c(Br)cc(cc1Br)C#N,water,298,-3.3284,mol/L
CCCCCCCC(=O)Oc1c(Br)cc(cc1Br)C#N,water,298,-6.7023,mol/L
ClC1=C(Cl)C(=O)N(N=C1)c2ccccc2,water,298,-3.3822,mol/L
NC1=C(Cl)C(=O)N(N=C1)c2ccccc2,water,298,-2.7436,mol/L
OC(=O)c1nc(Cl)ccc1Cl,water,298,-1.3884,mol/L
Cc1cc2c3ccccc3ccc2c4ccccc14,water,298,-6.5715,mol/L
CC(C)O[N+]([O-])=O,water,298,-1.4593,mol/L
CC(F)(Cl)Cl,water,298,-2.4448,mol/L
COc1ccc2Nc3cc(Cl)ccc3Sc2c1,water,298,-4.9787,mol/L
CC(C)c1ccc2c(CC[C@H]3[C@@](C)(CCC[C@]23C)C(O)=O)c1,water,298,-4.6582,mol/L
C1NNCN2CNNCN12,water,298,-0.0128,mol/L
O=C(Nc1ccccc1)c2cccnc2,water,298,-3.093,mol/L
Nc1ccc2snnc2c1,water,298,-1.3045,mol/L
[NH4+].[S-]C#N,water,298,0.9178,mol/L
OCc1ccc(Cl)cc1Cl,water,298,-2.248,mol/L
[O-][N+](=O)CCl,water,298,-0.281,mol/L
C\C(NO)=C/N=O,water,298,-0.3462,mol/L
OCc1ccc(Cl)c(Cl)c1,water,298,-2.0439,mol/L
CCCCO[P+](=O)OCCCC,water,298,-1.4249,mol/L
Clc1cccc2c(Cl)cccc12,water,298,-5.716,mol/L
Clc1ccc(Cl)c2ccccc12,water,298,-5.3576,mol/L
CCN(CC)C(=O)CSc1ccc(Cl)nn1,water,298,-1.7156,mol/L
[O-][N+](=O)c1ccc(Oc2ccc(Cl)cc2Cl)cc1,water,298,-5.4535,mol/L
[O-][N+](=O)c1ccc(Oc2c(Cl)cc(Cl)cc2Cl)cc1,water,298,-5.6201,mol/L
CCCC(O)C(C)CC,water,298,-1.8406,mol/L
Fc1ccc(cc1)C(CCCN2CCC3(CC2)N(CNC3=O)c4ccccc4)c5ccc(F)cc5,water,298,-4.6772,mol/L
OC(=O)CCCCCCCCCC(O)=O,water,298,-1.6274,mol/L
COC(=O)c1c(Cl)c(Cl)c(c(Cl)c1Cl)C(=O)OC,water,298,-5.8221,mol/L
CCCCN(CC)c1c(cc(cc1[N+]([O-])=O)C(F)(F)F)[N+]([O-])=O,water,298,-6.5254,mol/L
CC(O)COCc1c(Cl)ccc(Cl)c1Cl,water,298,-3.5673,mol/L
[H+].[Cl-].CNC1(CCCCC1=O)c2ccccc2Cl,water,298,-0.137,mol/L
Cc1cc(O)c(Cc2ccccc2)c(C)c1Cl,water,298,-4.3009,mol/L
OCCNC(=O)C(=O)NCCO,water,298,-0.1124,mol/L
Nc1ncnc2n(cnc12)[C@]3(CO)O[C@H](CO)[C@@H](O)[C@H]3O,water,298,-1.5701,mol/L
Cc1ccccc1OCC(O)=O,water,298,-2.4424,mol/L
OC(=O)COc1ccccc1[N+]([O-])=O,water,298,-2.016,mol/L
CC(C)(C)[S](=O)(=O)C(C)(C)C,water,298,-1.2177,mol/L
ClC(Cl)=C(Cl)C(Cl)(Cl)Cl,water,298,-4.1651,mol/L
Brc1oc(C=O)cc1,water,298,-1.544,mol/L
CCN(CC)c1nc(Cl)nc(NC(C)C)n1,water,298,-3.7849,mol/L
Cc1oc(cc1)C(O)=O,water,298,-0.8243,mol/L
COCc1oc(C=O)cc1,water,298,-0.4992,mol/L
COc1c(Cl)ccc(Cl)c1C(O)=O,water,298,-1.4249,mol/L
Nc1c(Cl)c(Cl)nc(C(O)=O)c1Cl,water,298,-2.7494,mol/L
CCCN(CCC)c1c(cc(C)cc1[N+]([O-])=O)[N+]([O-])=O,water,298,-2.9663,mol/L
CNC(=O)Oc1c(cc(C)cc1C(C)(C)C)C(C)(C)C,water,298,-4.598,mol/L
Oc1ccc2Nc3ccccc3Sc2c1,water,298,-2.5748,mol/L
COC(=O)COc1ccc(Cl)cc1Cl,water,298,-2.9596,mol/L
CCOC(=O)COc1cc(Cl)c(Cl)cc1Cl,water,298,-4.8493,mol/L
CCCCCCCCOC(=O)COc1ccc(Cl)cc1Cl,water,298,-7.0217,mol/L
CCCOC(=O)COc1ccc(Cl)cc1Cl,water,298,-4.2502,mol/L
COc1ccc(CCC(O)=O)cc1,water,298,-2.2144,mol/L
CCCCOCCOC(=O)COc1ccc(Cl)cc1Cl,water,298,-4.4276,mol/L
CCCSC(=O)N(CCC)CCC,water,298,-3.354,mol/L
Clc1cccc(n1)C(Cl)(Cl)Cl,water,298,-3.5061,mol/L
CNC(=O)Nc1sc2ccccc2n1,water,298,-4.2373,mol/L
[O-][N+](=O)C(Cl)([N+]([O-])=O)[N+]([O-])=O,water,298,-1.9259,mol/L
CC(=C)C1CCC(C)(O)C(O)C1,water,298,-0.2311,mol/L
CCCS[S](=O)CCC,water,298,-0.9199,mol/L
COc1c(cccc1C(O)=O)C(O)=O,water,298,-2.2926,mol/L
CCC(=O)Oc1ccc(cc1)[N+]([O-])=O,water,298,-3.8925,mol/L
CCCCC(=O)Oc1ccc(cc1)[N+]([O-])=O,water,298,-4.3945,mol/L
CCCCOC(=O)c1ccc(cc1)C(=O)OCCCC,water,298,-5.4669,mol/L
CC(C)C(NC(=O)CN)C(O)=O,water,298,0.4579,mol/L
OCCNC(=O)CCCCC(=O)NCCO,water,298,0.4121,mol/L
CNC(=O)OCc1ccc(Cl)c(Cl)c1,water,298,-3.1389,mol/L
CC(OC(=O)Nc1cccc(Cl)c1)C#C,water,298,-2.6172,mol/L
NC(=O)Nc1ccc(Br)cc1,water,298,-1.6336,mol/L
CCc1ccccc1Br,water,298,-3.6702,mol/L
CN(C)C(=O)Nc1ccc(Oc2ccc(Cl)cc2)cc1,water,298,-4.8953,mol/L
CC1CCCCC1NC(=O)Nc2ccccc2,water,298,-4.1108,mol/L
COc1cccc(Cl)c1Cl,water,298,-3.309,mol/L
COc1c(Cl)cccc1Cl,water,298,-3.1019,mol/L
NC(=O)C=Cc1ccccc1[N+]([O-])=O,water,298,-1.2837,mol/L
Cc1ncnc2nc[nH]c12,water,298,0.1735,mol/L
CCSC(=O)N(CC(C)C)CC(C)C,water,298,-3.684,mol/L
O=C1CNC(=S)N1c2ccccc2,water,298,-3.2425,mol/L
CCCCCCCCCCN,water,298,-2.4564,mol/L
CCOC(=O)CCc1ccccc1,water,298,-2.9086,mol/L
NC1=C(F)C=NC(=O)N1,water,298,-0.9348,mol/L
CNC(=O)Oc1ccc(N(C)C)c(C)c1,water,298,-2.3572,mol/L
CNC(=O)Oc1cc(C)c(SC)c(C)c1,water,298,-3.9214,mol/L
CCCC1CCCC1,water,298,-4.7404,mol/L
CC(O)C(N)=O,water,298,0.9435,mol/L
CCC(C)(C)c1ccccc1,water,298,-4.1498,mol/L
CCOC(=O)CCCCCC(=O)OCC,water,298,-2.0408,mol/L
CCOC(=O)CCCCCCC(=O)OCC,water,298,-2.5304,mol/L
Clc1ccc2ccccc2c1Cl,water,298,-6.1611,mol/L
Clc1cccc2cccc(Cl)c12,water,298,-5.7963,mol/L
Clc1cc2ccccc2cc1Cl,water,298,-6.3566,mol/L
OC/1=CC(=O)C=CC1=N/Nc2ccccc2,water,298,-3.0299,mol/L
COC(C)C(N)C(O)=O,water,298,0.4853,mol/L
COC(C)C(N)C(O)=O,water,298,0.4979,mol/L
CC(C)CC(c1ccc(O)cc1)c2ccc(O)cc2,water,298,-3.3674,mol/L
C[C@@H](C[C@@H](C)C([O-])=O)C([O-])=O,water,298,-0.4564,mol/L
N[S](=O)(=O)c1cc2c(CN(C3CCCCC3)C2=O)cc1Cl,water,298,-4.3128,mol/L
Brc1cccc(c1)N=C=S,water,298,-4.0851,mol/L
C[C@@H]1C[C@H]2[C@@H]3C[C@H](F)C4=CC(=O)C=C[C@]4(C)[C@@]3(F)[C@@H](O)C[C@]2(C)[C@@]1(O)C(=O)CO,water,298,-5.6133,mol/L
Oc1ccc(C2CCCCC2)c(O)c1,water,298,-2.5763,mol/L
OCC1C(CO)C2(Cl)C(=C(Cl)C1(Cl)C2(Cl)Cl)Cl,water,298,-3.0802,mol/L
OC(=O)c1ccccc1C(=O)c2ccc(Br)cc2,water,298,-3.0074,mol/L
CCNC1=NC(=O)N=C(NC(C)C)N1,water,298,-4.5241,mol/L
CN(C)C(=O)NC1CCCCCCC1,water,298,-2.2182,mol/L
[Na+].C[As](O)([O-])=O,water,298,0.554,mol/L
O=C1NC2=C(CCC2)C(=O)N1C3CCCCC3,water,298,-4.5916,mol/L
CC(=C)C(=O)Nc1ccc(Cl)c(Cl)c1,water,298,-4.4325,mol/L
CCC(C)OC(=O)Nc1cccc(Cl)c1,water,298,-3.1727,mol/L
CC(C)COc1ccc2ccccc2c1,water,298,-5.2117,mol/L
CCCCN1CCCCC1C(=O)Nc2c(C)cccc2C,water,298,-2.0798,mol/L
Clc1ccc2ccc(Cl)cc2c1,water,298,-5.9217,mol/L
CCOC(=O)c1[nH]c(C)cc1C,water,298,-2.6212,mol/L
COc1ccc(cc1C(O)=O)C(O)=O,water,298,-3.1165,mol/L
C[C@H]1CCCC[C@H]1C,water,298,-4.2719,mol/L
C[C@@H](Cl)[C@@H](C)Cl,water,298,-2.3541,mol/L
OC(=O)c1cccc2cccc(c12)[N+]([O-])=O,water,298,-2.7501,mol/L
CCCCC(C)CCC,water,298,-6.0474,mol/L
CC(C)[C@@H]1CC[C@@H](C)C[C@H]1O,water,298,-2.5037,mol/L
COc1cccc2ccccc12,water,298,-4.1992,mol/L
CC1(C)[C@@H]2CC[C@@](C)(C2)[C@@H]1O,water,298,-2.2702,mol/L
CCC(CC)([S](=O)(=O)CC)[S](=O)(=O)CC,water,298,-2.0625,mol/L
Clc1ccc(Sc2cc(Cl)c(Cl)cc2Cl)cc1,water,298,-7.0335,mol/L
ClC1=C(Cl)C(Cl)(C(=C1Cl)Cl)C2(Cl)C(=C(Cl)C(=C2Cl)Cl)Cl,water,298,-7.2784,mol/L
O\N=C/1CCCC=C1,water,298,-0.9667,mol/L
Clc1c(Cl)c(Cl)c2c(Cl)c(Cl)c(Cl)c(Cl)c2c1Cl,water,298,-9.703,mol/L
Nc1cccc(c1)C#N,water,298,-1.1693,mol/L
CCCCCCCCC#N,water,298,-3.2987,mol/L
Nc1cccc2c(N)cccc12,water,298,-2.6194,mol/L
S=C=NCCc1ccccc1,water,298,-3.1714,mol/L
[O-]C(=O)C(Cl)=C(Cl)Cl,water,298,-0.4659,mol/L
FC(F)(F)c1[nH]c2cncnc2n1,water,298,-0.4505,mol/L
OC(=O)CCCCc1ccccc1,water,298,-2.4657,mol/L
Cn1cnc2nc(Cl)nc(Cl)c12,water,298,-1.1522,mol/L
CO[P](=O)(OC)OC(=C\Cl)/c1ccc(Cl)cc1Cl,water,298,-3.4066,mol/L
CCO[P](=S)(OCC)SCC(=O)NC(C)C,water,298,-2.0575,mol/L
CNC(=O)CCSCCS[P](=O)(OC)OC,water,298,0.5416,mol/L
OC(=O)c1c(O)ccc2ccccc12,water,298,-3.1284,mol/L
CC(C)N(C(C)C)C(=O)SC\C(Cl)=C\Cl,water,298,-4.2856,mol/L
CC(C)N(C(C)C)C(=O)SCC(Cl)=C(Cl)Cl,water,298,-4.8818,mol/L
OC(=O)C1CCCCC1C(O)=O,water,298,-1.935,mol/L
O=C1Nc2nc[nH]c2C=N1,water,298,-1.7136,mol/L
CN1C(=O)N(C)C2=C(N(C)C(=O)N2C)C1=O,water,298,-0.9527,mol/L
CCO[P](=S)(OCC)SCN1C(=O)Oc2cc(Cl)ccc12,water,298,-5.0813,mol/L
CCCCOC(=O)C1(O)c2ccccc2c3ccccc13,water,298,-3.8885,mol/L
CCN(CC)C(=O)CCl,water,298,-0.243,mol/L
CCCOC(=O)c1ccccc1,water,298,-2.6701,mol/L
OCc1cc(Br)ccc1O,water,298,-0.2072,mol/L
CC(C)C(CC(O)=O)C(O)=O,water,298,-0.4073,mol/L
CCOC(=O)[C@H](Cc1ccccc1)NC(C)=O,water,298,-1.7557,mol/L
Fc1cc(F)c(F)c(F)c1,water,298,-2.3057,mol/L
CCCC(C)(C)CO,water,298,-1.4391,mol/L
OC(=O)\C=C/c1ccc2OCOc2c1,water,298,-3.8523,mol/L
CCC1(CC=C)C(=O)NC(=O)NC1=O,water,298,-1.6885,mol/L
Cc1ccc2cc3ccc4ccccc4c3cc2c1,water,298,-6.644,mol/L
Cc1ccc2cc3c(ccc4ccccc34)cc2c1,water,298,-6.8162,mol/L
Cc1c2ccccc2c3ccc4cccc5ccc1c3c45,water,298,-8.5234,mol/L
S=C1Nc2ccccc2O1,water,298,-2.1795,mol/L
ClC1(Cl)C2(Cl)C3(Cl)C4(Cl)C(Cl)(Cl)C5(Cl)C3(Cl)C1(Cl)C5(Cl)C24Cl,water,298,-6.8074,mol/L
Clc1cccc(c1)N=C=S,water,298,-3.9507,mol/L
C#CCCCCCC#C,water,298,-2.983,mol/L
OC(=O)C1=C[NH++]([O-])[CH-]C=C1,water,298,-1.2983,mol/L
CCCCO[P](=O)(CC)OCCCC,water,298,-1.5687,mol/L
CCCCO[P](C)(=O)OCCCC,water,298,-1.4155,mol/L
Oc1ccccc1Oc2ccccc2,water,298,-3.2286,mol/L
CCC(O)CN(CC(O)CC)CC(O)CC,water,298,-0.5229,mol/L
Cc1c2ccccc2cc3ccc4ccccc4c13,water,298,-6.5648,mol/L
ClC(Cl)C(Cl)(Cl)SN1C(=O)C2CC=CCC2C1=O,water,298,-5.3968,mol/L
CCCCOCC1CO1,water,298,-0.8135,mol/L
Cc1cc(Cl)c(O)c(Cl)c1,water,298,-1.4202,mol/L
Cc1ncc2nccnc2n1,water,298,-0.1191,mol/L
Cc1ncnc2nccnc12,water,298,-0.4658,mol/L
NCCCCCCCCCCC(O)=O,water,298,-2.3039,mol/L
Cc1ccc2nc3SC(=O)Sc3nc2c1,water,298,-5.3698,mol/L
CCCCCCCCCCCCN=C(N)N.CC(O)=O,water,298,-2.6592,mol/L
COc1ccccc1C(N)=O,water,298,-1.7815,mol/L
OC(=O)CN(C[P](O)(O)=O)C[P](O)(O)=O,water,298,-0.0256,mol/L
Nc1ccc(CC(=O)c2ccccc2)cc1,water,298,-1.805,mol/L
Clc1ccc(Oc2ccc(Cl)cc2)cc1,water,298,-4.7999,mol/L
O.CC(C)(O)C1CCC(C)(O)CC1,water,298,-1.6774,mol/L
OC(=O)C1(O)c2ccccc2c3ccc(Cl)cc13,water,298,-4.0777,mol/L
Nc1ccc(N)c2C(=O)c3c(N)ccc(N)c3C(=O)c12,water,298,-6.9515,mol/L
CC(=O)Oc1c(cc(c(C)c1C(C)(C)C)[N+]([O-])=O)[N+]([O-])=O,water,298,-4.4717,mol/L
OC(=O)CNC=O,water,298,0.2672,mol/L
Oc1ccc(cc1)C(=O)Cc2ccccc2,water,298,-1.5008,mol/L
CCO[P](=S)(OCC)SCC[S](=O)(=O)CC,water,298,-2.5403,mol/L
Cc1c2ccccc2cc3c1cc(F)c4ccccc34,water,298,-7.31,mol/L
Cc1cccc2ccc3cc4ccccc4cc3c12,water,298,-6.644,mol/L
OC(=O)c1cc(Cl)ccc1[N+]([O-])=O,water,298,-1.319,mol/L
CCCCO[P](=O)(OCCCC)Oc1ccccc1,water,298,-3.4746,mol/L
COC(=O)C1(O)c2ccccc2c3ccc(Cl)cc13,water,298,-4.1836,mol/L
COc1c(O)c(Cl)c(Cl)c(Cl)c1Cl,water,298,-4.7949,mol/L
CO[P](=S)(OC)SCC(=O)N(C)C=O,water,298,-1.9954,mol/L
Cc1c2ccccc2cc3c4ccccc4cc(F)c13,water,298,-7.31,mol/L
Cc1c2ccccc2cc3c4ccccc4ccc13,water,298,-7.343,mol/L
OC(=O)CCCCCCCC=O,water,298,-0.9574,mol/L
ClC(Cl)C(=O)Nc1ccccc1,water,298,-3.3555,mol/L
CCC1OCCO1,water,298,0.2919,mol/L
N\C(NO)=C(/N)N=O,water,298,-0.7773,mol/L
Cc1cc(O)ccc1[N+]([O-])=O,water,298,-2.1103,mol/L
[O-][N+](=O)c1ccc(cc1)N=Nc2ccc(Nc3ccccc3)cc2,water,298,-7.5229,mol/L
NC(N)=Nc1sc2ccccc2n1,water,298,-2.4412,mol/L
OC(=O)CCC=CC(O)=O,water,298,-1.2045,mol/L
CCO[P](=S)(OCC)SC[S](=O)CC,water,298,-1.5384,mol/L
CCO[P](=S)(OCC)SC[S](=O)(=O)CC,water,298,-2.5309,mol/L
CCOc1snc(n1)C(Cl)(Cl)Cl,water,298,-3.3254,mol/L
CCOC(=O)N(C)C(=O)CS[P](=S)(OCC)OCC,water,298,-2.5177,mol/L
CCOC(=O)C(S[P](=S)(OC)OC)c1ccccc1,water,298,-4.4643,mol/L
C[Hg]C#N,water,298,-0.0821,mol/L
Cc1nc(C)c(cc1C(O)=O)C(O)=O,water,298,-2.809,mol/L
[Na+].[Na+].[Na+].[O-][S](=O)(=O)c1cc2C=CC(=O)\C(=N/Nc3ccc(c4ccccc34)[S]([O-])(=O)=O)c2c(c1)[S]([O-])(=O)=O,water,298,-0.8783,mol/L
CC(=O)Nc1ccc(OC(C)=O)cc1,water,298,-1.9076,mol/L
CN1C(=O)N(C)c2nc(C)c(C)nc2C1=O,water,298,-1.3429,mol/L
CCCC(=O)Oc1ccc(cc1)[N+]([O-])=O,water,298,-3.9404,mol/L
Oc1ccc2ccccc2c1N=O,water,298,-2.9374,mol/L
C[C@@](CCC([O-])=O)(N=N[C@](C)(CCC([O-])=O)C#N)C#N,water,298,-2.0083,mol/L
CCO[P](=S)(OCC)SCN1N=Nc2ccccc2C1=O,water,298,-4.5171,mol/L
Nc1cc2c3ccccc3ccc2c4ccccc14,water,298,-6.1958,mol/L
CNC(=O)Oc1cc(cc(c1)C(C)(C)C)C(C)(C)C,water,298,-4.2445,mol/L
COc1cc(Cl)c(OC)cc1Cl,water,298,-4.413,mol/L
CNCCC(O)=O,water,298,-0.0543,mol/L
Clc1ccccc1Oc2ccccc2,water,298,-4.7796,mol/L
CCCCO[P](=O)(OCC)OCC,water,298,-1.1466,mol/L
CCOC(=O)[C@@H](N)CC(C)C,water,298,-0.5606,mol/L
OC(=O)C(CSSCC(NC(=O)Cc1ccccc1)C(O)=O)NC(=O)Cc2ccccc2,water,298,-1.833,mol/L
C1C[n+]2ccccc2c3cccc[n+]13,water,298,-3.425,mol/L
COc1cc(Cl)c(Cl)cc1OC,water,298,-3.4588,mol/L
COC1=COC(=CC1=O)CS[P](=O)(OC)OC,water,298,0.7286,mol/L
CC(O)([P](O)(O)=O)[P](O)(O)=O,water,298,0.5249,mol/L
CCC(C)c1cc(cc(c1OC(C)=O)[N+]([O-])=O)[N+]([O-])=O,water,298,-2.1082,mol/L
C[C@H]1C[NH2+][C@H](C)C[NH2+]1,water,298,0.4864,mol/L
CC(=O)C=CC(O)=O,water,298,-0.2332,mol/L
OC(=O)CCCCCCCCCCBr,water,298,-3.699,mol/L
CCC(N)C(O)=O,water,298,0.2868,mol/L
FC(Cl)C(F)(F)F,water,298,-1.959,mol/L
COc1cccc(Cl)c1,water,298,-2.783,mol/L
CCO[P](=S)(OCC)Oc1nc(Cl)c(Cl)cc1Cl,water,298,-5.4956,mol/L
O=C1CCCC1C#N,water,298,-0.3567,mol/L
CCSC(=O)N(CC)CC,water,298,-1.6917,mol/L
C=CCO[P](=O)(OCC=C)c1ccccc1,water,298,-2.8999,mol/L
CCCCO[P](=O)(CCCC)CCCC,water,298,-1.7166,mol/L
CC1=C(Cl)C(=O)C(=C(C)N1)Cl,water,298,-4.2834,mol/L
Oc1ccc(C=O)cc1Br,water,298,-2.1794,mol/L
Clc1ccc(cc1)c2cccc(Cl)c2,water,298,-6.4001,mol/L
OC(=O)COc1cccc(Cl)c1Cl,water,298,-2.8097,mol/L
CCOC(=O)C(C)OC(C)=O,water,298,-0.6994,mol/L
Nc1ccc(SC#N)cc1,water,298,-2.6015,mol/L
Nc1nc2nc[nH]c2c(n1)C(F)(F)F,water,298,-3.1346,mol/L
CCN(CC)c1nc(NC(C)C)nc(OC)n1,water,298,-4.889,mol/L
CNc1nc(Cl)nc(NC(C)C)n1,water,298,-2.8896,mol/L
Oc1ccc(C=O)cc1[N+]([O-])=O,water,298,-2.9512,mol/L
CC(Br)CCl,water,298,-1.8476,mol/L
CNc1nc(NC(C)C)nc(OC)n1,water,298,-1.7509,mol/L
NC1=C(Br)C(=O)N(N=C1)c2ccccc2,water,298,-3.124,mol/L
CC(CCC(O)=O)CC(O)=O,water,298,0.1899,mol/L
CN[C@@H](CC(C)C)C(O)=O,water,298,-0.5146,mol/L
CC(C)C(NC(C)=O)C(O)=O,water,298,-0.6325,mol/L
C=CCCCC=C,water,298,-3.3396,mol/L
CC1CCCC(C)(C)C1,water,298,-4.8532,mol/L
OC(=O)CNCCC#N,water,298,0.3237,mol/L
CC[C@@H](C)[C@H](N)C(O)=O,water,298,-0.3895,mol/L
OC1(CCN(CCCC(=O)c2ccc(F)cc2)CC1)c3ccccc3,water,298,-4.1183,mol/L
CC(C)(C)CCCO,water,298,-1.5402,mol/L
NC(=O)C[C@H](NC(N)=O)C(O)=O,water,298,-0.511,mol/L
CN(C)C(=O)N(c1ccc(Cl)c(Cl)c1)C(=O)c2ccccc2,water,298,-4.3238,mol/L
NC(=O)NCl,water,298,0.3256,mol/L
CC(C)C[C@H](N)C(=O)NCC(=O)NCC(O)=O,water,298,0.2124,mol/L
OCC(O)C(O)C(O)C(O)C(O)C=O,water,298,-0.3226,mol/L
OC(=O)C1=C/C(C=CC1=O)=N/Nc2ccccc2,water,298,-3.0559,mol/L
COc1ccc(cc1)C(=O)CCC(O)=O,water,298,-1.0632,mol/L
CCC(NC=NN)C(O)=O,water,298,-0.8608,mol/L
OC1=CC=C(Br)C=CC1=O,water,298,-3.5629,mol/L
BrC1CCC(Br)C(Br)CCC(Br)C(Br)CCC1Br,water,298,-7.8728,mol/L
CC(C)COC(=O)C(C)(C)O,water,298,-0.7276,mol/L
Oc1ccccc1C(=O)N2CCOCC2,water,298,-1.7037,mol/L
[O-][N+](=O)c1cccc(Cl)c1Cl,water,298,-3.4881,mol/L
BrCC(CBr)(CBr)CBr,water,298,-5.3844,mol/L
CCCO[P](=S)(OCCC)O[P](=S)(OCCC)OCCC,water,298,-4.1009,mol/L
Cc1ccnc2c1ccc3c(C)ccnc23,water,298,-3.9686,mol/L
CCC(=O)OOC(=O)CC,water,298,-0.9634,mol/L
CCC(COC(=O)C(C)=C)(COC(=O)C(C)=C)COC(=O)C(C)=C,water,298,-4.4155,mol/L
OCC(CO)(CBr)CBr,water,298,-0.8384,mol/L
CC(Oc1ccc(Cl)cc1)C(O)=O,water,298,-2.1351,mol/L
CN(C)C(N)=N,water,298,-1.7306,mol/L
OC(=O)C1=CCCc2ccccc12,water,298,-2.7939,mol/L
OCC(O)C(O)C(O)C(O)C(O)CO,water,298,0.3722,mol/L
O/N=C/1CCCC=C1,water,298,-0.7034,mol/L
Oc1cc(Cl)ccc1Oc2ccc(Cl)cc2Cl,water,298,-4.4617,mol/L
C=CCCN=C=S,water,298,-2.391,mol/L
N[C@@H](Cc1cc(Cl)c(O)c(Cl)c1)C(O)=O,water,298,-0.796,mol/L
Nc1nc(N)nc(Cl)n1,water,298,-2.3849,mol/L
CCC(=O)NCCNC(=O)CC,water,298,0.3746,mol/L
Clc1ccc(cc1)C(=C(Cl)Cl)c2ccccc2Cl,water,298,-6.3563,mol/L
CN1C(=O)N(C)c2n[se]nc2C1=O,water,298,-2.2994,mol/L
OC(=O)c1occ(Br)c1,water,298,-1.1841,mol/L
CCCCCCCC#C,water,298,-4.2405,mol/L
CC1CCCCN1CCCOC(=O)c2ccc(Cl)c(Cl)c2,water,298,-4.2178,mol/L
Clc1c(Cl)c(Cl)c2nccnc2c1Cl,water,298,-5.428,mol/L
CC(C)CCC(C)(C)C,water,298,-5.0474,mol/L
CCOC(=O)N(CC)CC,water,298,-1.0651,mol/L
Oc1cc(O)c(c(O)c1)C(=O)c2ccccc2,water,298,-1.8708,mol/L
OC[C@H]1OC2(COC3(CO2)O[C@H](CO)[C@@H](O)[C@@H]3O)[C@@H](O)[C@@H]1O,water,298,-0.0058,mol/L
CC(C)Cc1sc(N[S](=O)(=O)c2ccc(N)cc2)nn1,water,298,-3.8226,mol/L
CN(Cc1cc(Br)cc(Br)c1N)C2CCCCC2,water,298,-1.9733,mol/L
OCCN(Cc1ccc(Oc2ccc(cc2)[N+]([O-])=O)cc1)C(=O)C(Cl)Cl,water,298,-5.1241,mol/L
CCCCCCCCCC(C(O)=O)C(O)=O,water,298,-3.3016,mol/L
FC(F)(F)c1[nH]c2ccc(Cl)c(Cl)c2n1,water,298,-3.5677,mol/L
CCC1(C(=O)NC(=O)NC1=O)C2=CC3CCC(C3)C2,water,298,-2.7696,mol/L
C[C@H](CC(O)=O)C(O)=O,water,298,0.6311,mol/L
NC(C(O)C(O)C(O)CO)C(O)=O,water,298,-0.859,mol/L
C(Cc1ccccc1)NCc2ccccc2,water,298,-2.7229,mol/L
CCc1ccc(NC(C)=O)cc1,water,298,-2.1453,mol/L
OCCCCCCCCCCC([O-])=O,water,298,-2.7039,mol/L
COc1cc(OC)c2C(=O)C3(Oc2c1)C(C)CC(=O)C=C3OC,water,298,-3.699,mol/L
CCOC(C)C(=O)C=O,water,298,-0.1554,mol/L
Clc1ccc(cc1)C(C(=O)C2C(=O)c3ccccc3C2=O)c4ccccc4,water,298,-3.5738,mol/L
Cc1cc2ccccc2c3ccc4ccccc4c13,water,298,-6.592,mol/L
Cc1c(C)c2c3ccccc3ccc2c4ccccc14,water,298,-7.0109,mol/L
CCc1c2ccccc2cc3c1ccc4ccccc34,water,298,-6.796,mol/L
N[S](=O)(=O)c1cccc(c1)[S](N)(=O)=O,water,298,-2.1693,mol/L
Cc1cc(C)c[n+]([O-])c1,water,298,0.9095,mol/L
NCc1ccccn1,water,298,0.966,mol/L
NCc1ccncc1,water,298,0.966,mol/L
CCO[P](=O)(OCC)SCC(=O)NC(C)(C)C#N,water,298,-0.6237,mol/L
CCO[P](=S)(OCC)Oc1ccc(N)cc1,water,298,-2.826,mol/L
Clc1cc(Cl)nc(n1)c2ccccc2,water,298,-4.9544,mol/L
CCCCCC1CCCC1,water,298,-6.0863,mol/L
Cc1cc(ccc1N=Nc2ccccc2)N(CCO)CCO,water,298,-4.1254,mol/L
COc1cc(N[S](=O)(=O)c2ccc(N)cc2)nc(C)n1,water,298,-2.543,mol/L
OC(=O)CN1C(=O)Sc2cccc(Cl)c12,water,298,-2.6087,mol/L
NNC(=O)CC(=O)NN,water,298,-0.121,mol/L
OCC(O)COC(=O)c1ccccc1Nc2ccnc3cc(Cl)ccc23,water,298,-0.9694,mol/L