Solute,Solvent,Temperature_K,Solubility,Units
OC[C@H](O)[C@@H](O)C(O)[C@H](O)[C@H](O)CO,water,298,-0.517,mol/L
CC(=O)c1ccc(O)c(O)c1O,water,298,-2.022,mol/L
OC(=O)c1ccc(C(O)=O)c(c1)C(O)=O,water,298,-1.0,mol/L
OC(=O)c1ccc(c(c1)[N+]([O-])=O)[N+]([O-])=O,water,298,-1.501,mol/L
CC(C)C(CC=C)C(=O)NC(N)=O,water,298,-2.747,mol/L
Oc1c2ccccc2cc3ccccc13,water,298,-4.733,mol/L
CC(=O)c1ccc(O[C@@H]2O[C@H](CO)[C@@H](O)[C@H](O)[C@H]2O)cc1,water,298,-1.174,mol/L
C=C(c1ccccc1)c2ccccc2,water,298,-4.436,mol/L
OC(=O)c1ccccc1Nc2cccc(c2)C(F)(F)F,water,298,-3.3,mol/L
COc1ccccc1OCC(O)COC(N)=O,water,298,-0.985,mol/L
CCN(CC)C(=O)CC(C)C,water,298,-0.595,mol/L
OC(CI)CI,water,298,-1.397,mol/L
CCCCC(C(O)=O)C(O)=O,water,298,0.437,mol/L
CC(C)(C)c1sc(N[S](=O)(=O)c2ccc(N)cc2)nn1,water,298,-3.74,mol/L
CN(C)c1cc(C)nc(Cl)n1,water,298,-1.261,mol/L
CCc1ccncc1,water,298,0.827,mol/L
CCc1cccnc1,water,298,0.538,mol/L
CN1C2CCC1CC(C2)OC(=O)c3ccccc3,water,298,-2.369,mol/L
OC(=O)/C=C/c1occc1,water,298,-1.839,mol/L
CCCCC(=O)OCC,water,298,-1.77,mol/L
CCOC(=O)NCC(C)C,water,298,-0.768,mol/L
CCCCCOC(=O)CCC,water,298,-2.467,mol/L
CC(C)CC(C)(C)C,water,298,-4.746,mol/L
CC(=O)OC(C)(C)C,water,298,-1.144,mol/L
CCCC(Cl)Cl,water,298,-2.4,mol/L
CC(N)CC(O)=O,water,298,0.987,mol/L
CC(C)COC=O,water,298,-1.001,mol/L
CCCCI,water,298,-2.96,mol/L
ClC\C=C/Cl,water,298,-2.045,mol/L
CC(=O)NCC(O)=O,water,298,-0.649,mol/L
CC(C)CCOCCC(C)C,water,298,-2.898,mol/L
C=C1CCOC1=O,water,298,0.184,mol/L
CCOC(=O)C(C1=C(O)Oc2ccccc2C1=O)C3=C(O)Oc4ccccc4C3=O,water,298,-3.426,mol/L
COC(=O)C1=CO[C@@H](O[C@@H]2O[C@H](CO)[C@@H](O)[C@H](O)[C@H]2O)[C@@H]3[C@@H](C)CC(=O)[C@H]13,water,298,-0.265,mol/L
CC(C)c1ccc(C)c(C(O)=O)c1O,water,298,-3.288,mol/L
OC[C@H]1O[C@H]([C@H](O)[C@@H]1O)n2cnc3cncnc23,water,298,-0.402,mol/L
Oc1ccc2ccccc2c1[N+]([O-])=O,water,298,-2.976,mol/L
CCCOc1ccc(cc1N)[N+]([O-])=O,water,298,-3.159,mol/L
CC1=C(N)NC(=O)N=C1,water,298,-0.56,mol/L
OC(=O)\C=C/C(=O)Nc1ccccc1,water,298,-2.281,mol/L
CCCOC,water,298,-0.386,mol/L
C=CCOCC=C,water,298,-0.02,mol/L
CN1CC[C@]23[C@H]4Oc5c(OC(C)=O)ccc(C[C@@H]1[C@@H]2C=C[C@@H]4OC(C)=O)c35,water,298,-2.797,mol/L
CCC(C)(C)CC,water,298,-4.229,mol/L
CCC(C)=C,water,298,-2.732,mol/L
CCC(C)C(C)(C)C,water,298,-4.678,mol/L
CCC(C)C(C)C,water,298,-4.281,mol/L
CCC(C)C(C)O,water,298,-0.722,mol/L
CCC(C)C(C)=O,water,298,-0.681,mol/L
CCC(O)C(C)C,water,298,-0.706,mol/L
CCC(=O)C(C)C,water,298,-0.81,mol/L
CC(C)C(C)C(C)C,water,298,-4.696,mol/L
CC(C)C(=O)C(C)C,water,298,-1.302,mol/L
COc1cc(cc(OC)c1O)[C@H]2[C@@H]3[C@H](COC3=O)Cc4c(O)c5OCOc5cc24,water,298,-4.125,mol/L
COc1ccc2COC(=O)c2c1OC,water,298,-1.89,mol/L
OC(=O)c1cccc(C(O)=O)c1C(O)=O,water,298,-0.837,mol/L
OC(=O)c1[nH]cnc1C(O)=O,water,298,-2.494,mol/L
OC(=O)COc1c(Cl)cc(Cl)cc1Cl,water,298,-3.013,mol/L
CCc1cccc(CC)c1N,water,298,-2.348,mol/L
CC1CCCCC1C,water,298,-4.272,mol/L
Cc1ccncc1C,water,298,0.359,mol/L
Cc1cccnc1C,water,298,0.385,mol/L
CCCOC(=O)CN1C=C(I)C(=O)C(=C1)I,water,298,-3.504,mol/L
CCCC(C)CC,water,298,-4.306,mol/L
CCC(C)CCO,water,298,-1.376,mol/L
CCCC(=O)CC,water,298,-0.833,mol/L
CCCCC(C)CC,water,298,-5.159,mol/L
Brc1ccc(I)cc1,water,298,-4.452,mol/L
CC1CCC(C)CC1,water,298,-4.466,mol/L
Cc1ccc(C)nc1,water,298,0.401,mol/L
CCCCOC(=O)CC,water,298,-1.938,mol/L
CCCC(C)(C)C,water,298,-4.357,mol/L
CCCC(C)(C)O,water,298,-0.499,mol/L
CC1=CCC(=O)O1,water,298,-0.293,mol/L
CC1CCCC(=O)C1,water,298,-1.874,mol/L
CC1=CCCCC1,water,298,-3.267,mol/L
CCCCC(C)C,water,298,-4.596,mol/L
C/C=C/CCl,water,298,-1.957,mol/L
CCCCOC=O,water,298,-1.131,mol/L
CC(C)C(C)(C)O,water,298,-0.411,mol/L
CC(C)(C)C(C)(C)O,water,298,-0.723,mol/L
CC(=O)O[C@@]1(CC[C@H]2[C@@H]3C=C(C)C4=CC(=O)CC[C@]4(C)[C@H]3CC[C@]12C)C(C)=O,water,298,-5.284,mol/L
CCC(C)(O)C(C)C,water,298,-0.85,mol/L
CC(C)(C(O)=O)C(O)=O,water,298,-0.167,mol/L
CC[S](=O)(=O)CC,water,298,0.043,mol/L
CC(C)(CC(O)=O)C(O)=O,water,298,-0.32,mol/L
CCC(O)(CC)CC,water,298,-0.84,mol/L
CCCC(C)(O)CC,water,298,-1.001,mol/L
CCC(Cl)[N+]([O-])=O,water,298,-1.189,mol/L
CC(C)C(O)C(C)C,water,298,-1.22,mol/L
CCC(C(O)=O)C(O)=O,water,298,0.732,mol/L
OC(=O)c1c(Br)c(O)c(O)c(O)c1Br,water,298,-0.419,mol/L
COc1c(cc(cc1[N+]([O-])=O)[N+]([O-])=O)[N+]([O-])=O,water,298,-3.085,mol/L
OC(=O)c1ccc(cc1[N+]([O-])=O)[N+]([O-])=O,water,298,-1.067,mol/L
[O-][N+](=O)c1ccc2COC(=O)c2c1,water,298,-2.651,mol/L
O=C1C=CNc2ccccc12,water,298,-1.481,mol/L
OC(C(O)=O)c1ccccc1,water,298,0.053,mol/L
O=C(NC(=O)c1ccccc1)c2ccccc2,water,298,-2.273,mol/L
Clc1ccccc1I,water,298,-3.532,mol/L
Ic1ccccc1I,water,298,-4.217,mol/L
Brc1ccc(Br)c(Br)c1,water,298,-4.498,mol/L
CCC(Cl)CC,water,298,-2.63,mol/L
CCC(O)C=C,water,298,0.02,mol/L
CC[NH+](C)CC,water,298,0.713,mol/L
CCCC(O)C(C)C,water,298,-1.32,mol/L
OC[C@H]1O[C@@H](Oc2ccccc2C=O)[C@H](O)[C@@H](O)[C@@H]1O,water,298,-1.198,mol/L
OC(=O)c1cc(O)cc(c1)C(O)=O,water,298,-2.482,mol/L
Cc1ccc(cc1C)C([O-])=O,water,298,-3.066,mol/L
Cc1ccc(C=C)cc1,water,298,-3.123,mol/L
O=Cc1ccc(C=O)cc1,water,298,-2.827,mol/L
CCCC(=O)OC,water,298,-0.833,mol/L
CCCCC(O)CCCC,water,298,-2.49,mol/L
Ic1ccc(I)cc1,water,298,-5.372,mol/L
COC(=O)\C=C/C(=O)OC,water,298,-0.256,mol/L
CCCCCCC(O)CC,water,298,-2.654,mol/L
ICCI,water,298,-3.216,mol/L
CC(C)(C)CCO,water,298,-0.5,mol/L
CC(C)CC(C)(C)O,water,298,-0.961,mol/L
CCCCC(C)(C)O,water,298,-1.078,mol/L
CCCCCC(C)(C)O,water,298,-1.72,mol/L
CCCC(C)Cl,water,298,-2.63,mol/L
COCC(C)C,water,298,-0.9,mol/L
CCOC(C)C,water,298,-0.551,mol/L
CC(C)OC=O,water,298,-0.629,mol/L
Clc1cccc(I)c1,water,298,-3.532,mol/L
Ic1cccc(I)c1,water,298,-4.518,mol/L
OC1=CC(=O)C=CN1,water,298,-1.25,mol/L
CC(C)CCCO,water,298,-1.14,mol/L
CCCOC(C)C,water,298,-1.337,mol/L
OCCCBr,water,298,0.009,mol/L
OCCCCl,water,298,0.422,mol/L
CC(C)CCC(C)O,water,298,-1.38,mol/L
CCCCOC,water,298,-0.99,mol/L
CCCOCC,water,298,-0.845,mol/L
CCCCCOC(C)=O,water,298,-1.877,mol/L
CCCCCC#C,water,298,-3.01,mol/L
C1CCC=CCC1,water,298,-3.163,mol/L
CCCCCCCC(C)O,water,298,-2.744,mol/L
CCCCCCCCCCCCCCCO,water,298,-6.35,mol/L
OC(=O)c1ccnc(C(O)=O)c1C(O)=O,water,298,-1.245,mol/L
OC(=O)c1ccc(O)c(c1)C(O)=O,water,298,-2.783,mol/L
CCC(=O)OC(C)C,water,298,-1.29,mol/L
Clc1ccc(I)cc1,water,298,-4.076,mol/L
CC1NC(C)SC(C)S1,water,298,-1.368,mol/L
CCCCCCCCCCCCC(O)=O,water,298,-3.813,mol/L
OC1C(O)C(O)C(O)C(O)C1O,water,298,0.35,mol/L
CC\C=C\C,water,298,-2.538,mol/L
C=CC#C,water,298,-1.464,mol/L
CC(C)CC=C,water,298,-3.244,mol/L
Clc1ccccc1Br,water,298,-3.203,mol/L
Cc1oc(N[S](=O)(=O)c2ccc(N)cc2)nc1C,water,298,-2.202,mol/L
C1CC[C@@H]2NCCC[C@H]2C1,water,298,-1.083,mol/L
Clc1ccc(cc1)C(c2ccccc2Cl)C(Cl)(Cl)Cl,water,298,-6.62,mol/L
CCOC(=O)CCCC(=O)OCC,water,298,-1.33,mol/L
OCCCC=C,water,298,-0.179,mol/L
COCCCNc1nc(NC(C)C)nc(SC)n1,water,298,-2.928,mol/L
OC(=O)CC(Br)C(O)=O,water,298,-0.215,mol/L
CCC#CCC,water,298,-2.167,mol/L
[O-][N+](=O)c1ccc(Nc2ccccc2)c(c1)[N+]([O-])=O,water,298,-3.834,mol/L
CCOc1ccc(N[S](=O)(=O)c2ccc(N)cc2)nn1,water,298,-2.427,mol/L
CC(=O)C1(C)CCC2C3C=C(C)C4=CC(=O)CCC4(C)C3CCC12C,water,298,-5.272,mol/L
CNc1nc(NC(C)C)nc(SC)n1,water,298,-2.566,mol/L
Fc1ccccc1Br,water,298,-2.695,mol/L
CC(C)(C)C(=O)OCC(=O)C1(O)CCC2C3CCC4=CC(=O)C=CC4(C)C3C(O)CC12C,water,298,-4.583,mol/L
CCCCC#CC,water,298,-2.771,mol/L
CCC(C)(C)CO,water,298,-1.129,mol/L
NCC1CCC(CC1)C(O)=O,water,298,0.026,mol/L
Cc1cc(C)c2ccccc2n1,water,298,-1.944,mol/L
CC[C@@H]1CCCCN1,water,298,-0.346,mol/L
CC(=O)Oc1ccc(Br)cc1C(O)=O,water,298,-2.589,mol/L
COc1ccc(NC(N)=O)cc1,water,298,-1.592,mol/L
C/C=C/C(C)O,water,298,0.015,mol/L
CN(C)NC(=O)CCC(O)=O,water,298,-0.205,mol/L
CCCCCCCCCC(C)O,water,298,-2.94,mol/L
Cc1cnc2c(ccc3c(C)c(C)cnc23)c1C,water,298,-5.195,mol/L
CN(C)CC\C=C1/c2ccccc2COc3ccccc13,water,298,-3.947,mol/L
CCC1CCCCC1,water,298,-4.251,mol/L
O=C1C=CC(C=C1)=NNc2ccccc2,water,298,-3.343,mol/L
Oc1c(Br)cc(cc1Br)C#N,water,298,-3.328,mol/L
OC(=O)c1nc(Cl)ccc1Cl,water,298,-2.283,mol/L
Cc1cc2c3ccccc3ccc2c4ccccc14,water,298,-6.571,mol/L
C1Cc2ccc3CCCc4ccc(C1)c2c34,water,298,-5.959,mol/L
CCN(CC)C(=O)CSc1ccc(Cl)nn1,water,298,-1.716,mol/L
CCCCN(CC)c1c(cc(cc1[N+]([O-])=O)C(F)(F)F)[N+]([O-])=O,water,298,-6.525,mol/L
Nc1ncnc2n(cnc12)[C@]3(CO)O[C@H](CO)[C@@H](O)[C@H]3O,water,298,-1.57,mol/L
Nc1c(Cl)c(Cl)nc(C(O)=O)c1Cl,water,298,-2.749,mol/L
NC(=S)c1c(Cl)cccc1Cl,water,298,-2.336,mol/L
CC(OC(=O)Nc1cccc(Cl)c1)C#C,water,298,-2.617,mol/L
CN(C)C(=O)Nc1ccc(Oc2ccc(Cl)cc2)cc1,water,298,-4.895,mol/L
CC1CCCCC1NC(=O)Nc2ccccc2,water,298,-4.111,mol/L
NC1=C(F)C=NC(=O)N1,water,298,-0.935,mol/L
CC(C)c1ccc2ccccc2c1,water,298,-5.298,mol/L
CNC(=O)Oc1cc(C)c(SC)c(C)c1,water,298,-4.353,mol/L
CCC(C)(C)c1ccccc1,water,298,-4.15,mol/L
CCOC(=O)CCCCCC(=O)OCC,water,298,-2.013,mol/L
CCOC(=O)CCCCCCC(=O)OCC,water,298,-2.53,mol/L
CCCC1CCCC1,water,298,-4.74,mol/L
C[C@H]1CCCC[C@H]1C,water,298,-3.272,mol/L
CCO[P](=S)(OCC)SCC(=O)NC(C)C,water,298,-2.057,mol/L
CCCCOC(=O)C1(O)c2ccccc2c3ccccc13,water,298,-3.888,mol/L
CC12CCC3C(CCC4CC5SC5CC34C)C1CCC2O,water,298,-5.407,mol/L
Fc1cc(F)c(F)c(F)c1,water,298,-2.306,mol/L
CCCC(C)(C)CO,water,298,-1.52,mol/L
Cc1ccc2cc3c(ccc4ccccc34)cc2c1,water,298,-6.816,mol/L
CCOC(=O)[C@H](Cc1c[nH]c2ccccc12)N(C)C=O,water,298,-2.271,mol/L
C#CCCCC#C,water,298,-1.747,mol/L
CC(C)CCCCCCO,water,298,-2.487,mol/L
OC(=O)C1(O)c2ccccc2c3ccc(Cl)cc13,water,298,-4.161,mol/L
CC(=O)Oc1c(cc(c(C)c1C(C)(C)C)[N+]([O-])=O)[N+]([O-])=O,water,298,-4.472,mol/L
CC(=C)[C@@H]1[C@H]2OC(=O)[C@@H]1[C@]3(O)[C@H]4O[C@H]4[C@]5(CO5)[C@]3(C)[C@@H]2O,water,298,-1.19,mol/L
C[C@H]1C[NH2+][C@H](C)C[NH2+]1,water,298,0.486,mol/L
CC(=O)Nc1ccc(N\N=C\2C=C(C)C=CC2=O)cc1,water,298,-5.358,mol/L
CCC(N)C(O)=O,water,298,0.288,mol/L
OC(=O)COc1cccc(Cl)c1Cl,water,298,-2.809,mol/L
CC(CCC(O)=O)CC(O)=O,water,298,0.19,mol/L
C=CCCCC=C,water,298,-3.34,mol/L
CC1CCCC(C)(C)C1,water,298,-4.853,mol/L
CC(C)(C)CCCO,water,298,-1.551,mol/L
Oc1ccccc1C(=O)N2CCOCC2,water,298,-1.704,mol/L
Oc1cc(Cl)ccc1Oc2ccc(Cl)cc2Cl,water,298,-4.462,mol/L
CCCCCCCC#C,water,298,-4.094,mol/L
OCC1OC(O)C(O)C(O)C1O,water,298,0.597,mol/L
CC(=C)C1(O)[C@H]2OC(=O)[C@@H]1[C@]3(O)[C@H]4O[C@H]4[C@]5(CO5)[C@]3(C)[C@@H]2O,water,298,-1.42,mol/L
CC(C)CCC(C)(C)C,water,298,-5.047,mol/L
OCCN(Cc1ccc(Oc2ccc(cc2)[N+]([O-])=O)cc1)C(=O)C(Cl)Cl,water,298,-5.124,mol/L
Cc1c(C)c2c3ccccc3ccc2c4ccccc14,water,298,-7.011,mol/L
CCO[P](=O)(OCC)SCC(=O)NC(C)(C)C#N,water,298,-0.624,mol/L
CCC(O)C(C)(C)C,water,298,-1.151,mol/L
OC(=O)COc1c(Cl)ccc(Cl)c1Cl,water,298,-2.62,mol/L
C\C=C/CO,water,298,0.362,mol/L
CCCCCCC(C)O,water,298,-2.036,mol/L
CCSc1nc(NC(C)C)nc(NC(C)C)n1,water,298,-4.203,mol/L
CC[C@@H]1[C@@H](O)N2[C@H]3C[C@@H]1C4C(O)[C@@]5(C[C@H]24)[C@H]3N(C)c6ccccc56,water,298,-2.824,mol/L
CC(=O)CC1CCCCN1,water,298,-0.451,mol/L
CC1CCC(C)(C)C1,water,298,-4.478,mol/L
CN(C=C)N=O,water,298,0.463,mol/L
CC1(C)[C@@H]2CC[C@@](C)(C2)C1=O,water,298,-1.85,mol/L
CCCN(CCC)c1c(cc(cc1[N+]([O-])=O)[S](C)(=O)=O)[N+]([O-])=O,water,298,-5.76,mol/L
[O-]C(=O)c1cccc(Cl)c1[N+]([O-])=O,water,298,-2.632,mol/L
C/C=C/C#N,water,298,-0.429,mol/L
CCCC(O)C=C,water,298,-0.599,mol/L
CC(C)C(O)C=C,water,298,-0.5,mol/L
CCC(O)\C=C\C,water,298,-0.4,mol/L
CCC(C)C(C)(C)O,water,298,-0.91,mol/L
CCCCC1=C(C)NC(=NC1=O)N(C)C,water,298,-2.242,mol/L
CC(C)=CCC\C(C)=C\C=O,water,298,-2.055,mol/L
CCCCC(C)(O)CC,water,298,-1.6,mol/L
CCOC1CC1,water,298,-0.641,mol/L
CC[S](=O)CS[P](=S)(OC(C)C)OC(C)C,water,298,-2.307,mol/L
CC(C)OC(=O)C(O)(c1ccc(Cl)cc1)c2ccc(Cl)cc2,water,298,-4.53,mol/L
OC1=C(C2CCCc3ccccc23)C(=O)c4ccccc4O1,water,298,-4.864,mol/L
CCCCCC(O)CCC,water,298,-2.591,mol/L
CC(=C)[C@@H]1CCC(=CC1)C,water,298,-3.994,mol/L
C\C(Cl)=C/C(O)=O,water,298,-0.605,mol/L
CNCC(O)C(O)C(O)C(O)CO,water,298,0.709,mol/L
CC(C)CC(C)CO,water,298,-1.6,mol/L
C\C=C/C(=O)O[C@@H]1C[C@H]2O[C@@H]3C=C(C)C(=O)C[C@]3(C)[C@]1(C)[C@@]24CO4,water,298,-2.92,mol/L
CCNc1nc(Cl)nc(NCC(=O)OCC)n1,water,298,-2.937,mol/L
CCC(C)OC,water,298,-0.73,mol/L
C[C@H]1CCCC[C@@H]1C,water,298,-4.334,mol/L
CNC(=O)\C=C(/C)O[P](=O)(OC)OC,water,298,0.651,mol/L
COC(=O)c1cc(Cl)cc(N)c1Cl,water,298,-3.263,mol/L
CCC(C)(O)C(C)(C)C,water,298,-1.27,mol/L
NCC(O)c1ccccc1,water,298,-0.476,mol/L
CC(Cl)C(C)Cl,water,298,-2.354,mol/L
Cn1c(COC(N)=O)ncc1[N+]([O-])=O,water,298,-1.839,mol/L
CC(C)=C[C@@H]1[C@@H](C(=O)OCN2C(=O)C3=C(CCCC3)C2=O)C1(C)C,water,298,-4.858,mol/L
CO[P](=O)(OC)OC(/C)=C/C(=O)OC(C)c1ccccc1,water,298,-2.497,mol/L
Nc1cc(ccc1Br)[N+]([O-])=O,water,298,-3.558,mol/L
COc1ccc(cc1)C(O)(C2CC2)c3cncnc3,water,298,-2.596,mol/L
CCCS[P](=O)(OCC)SCCC,water,298,-2.509,mol/L
CC1CCOC1,water,298,0.09,mol/L
C[C@H]([C@H](C)C([O-])=O)C([O-])=O,water,298,-0.688,mol/L
CCO[P](=S)(OCC)Oc1cnc2ccccc2n1,water,298,-4.132,mol/L
ClCC(CCl)O[P](=O)(OC(CCl)CCl)OC(CCl)CCl,water,298,-4.789,mol/L
CCOC(=O)Nc1cccc(OC(=O)Nc2ccccc2)c1,water,298,-4.632,mol/L
COC(=O)Nc1cccc(OC(=O)Nc2cccc(C)c2)c1,water,298,-4.779,mol/L
CC(=O)OC1(CCC2C3C=C(Cl)C4=CC(=O)C=CC4(C)C3CCC12C)C(C)=O,water,298,-4.945,mol/L
CCC(C)N,water,298,0.185,mol/L
CN1c2ccccc2Sc3ccc(CC(O)=O)cc13,water,298,-3.942,mol/L
CC(C)[C@@H]1CC[C@@H](C)CC1=O,water,298,-2.492,mol/L
CCCC(CC)(CC)CO,water,298,-2.419,mol/L
COc1ccc(Oc2ccc(NC(=O)N(C)C)cc2)cc1,water,298,-4.156,mol/L
Cc1cccc(C)c1NC(=O)c2cc(c(Cl)cc2O)[S](N)(=O)=O,water,298,-3.787,mol/L
CN1CC[C@]23[C@H]4Oc5c(OCc6ccccc6)ccc(C[C@@H]1[C@@H]2C=C[C@@H]4O)c35,water,298,-2.973,mol/L
COC(=O)C(Cl)Cc1ccc(Cl)cc1,water,298,-3.765,mol/L
CCN(CC)C(=O)C(C)Oc1cccc2ccccc12,water,298,-3.57,mol/L
Ic1ccccc1C(=O)Nc2ccccc2,water,298,-4.208,mol/L
CCCCC(C)(C)CCC,water,298,-4.811,mol/L
OCC(O)[C@H]1OC2O[C@@H](O[C@@H]2[C@H]1O)C(Cl)(Cl)Cl,water,298,-1.843,mol/L
OC(=O)CC(Cl)C(O)=O,water,298,0.077,mol/L
CCNC(=O)[C@H](C)OC(=O)Nc1ccccc1,water,298,-1.829,mol/L
C=COC1CC1,water,298,-1.1,mol/L
O[C@H](C(O)=O)c1ccccc1,water,298,0.158,mol/L
CC(C)OC(C)(C)C,water,298,-2.366,mol/L
CC(C)OC(=O)C(O)(c1ccc(Br)cc1)c2ccc(Br)cc2,water,298,-4.933,mol/L
COC(=O)C1=CO[C@@H](O[C@@H]2O[C@H](CO)[C@@H](O)[C@H](O)[C@H]2O)[C@@H]3[C@@H](C)[C@@H](O)C[C@H]13,water,298,-0.591,mol/L
CC(C)(C)NCC(O)c1ccc(O)c(CO)c1,water,298,-1.224,mol/L
CNC(=O)N(C)c1sc2ccccc2n1,water,298,-3.574,mol/L
CCCN(CCC)c1c(cc(cc1[N+]([O-])=O)[S](N)(=O)=O)[N+]([O-])=O,water,298,-3.61,mol/L
CCC(C)C(O)C(C)CC,water,298,-2.51,mol/L
CC(C)C(C)CO,water,298,-0.37,mol/L
CCOC(=O)C(C)N(C(=O)c1ccccc1)c2ccc(Cl)c(Cl)c2,water,298,-4.263,mol/L
CNC(=O)Oc1cccc2OC(C)(C)Oc12,water,298,-3.747,mol/L
COc1ccc(C[C@@H]2NC[C@@H](O)[C@@H]2OC(C)=O)cc1,water,298,-1.608,mol/L
CCNc1nc(NC(C)C(C)C)nc(SC)n1,water,298,-3.708,mol/L
CN(C)C(=O)Oc1nc(nc(C)c1C)N(C)C,water,298,-1.946,mol/L
CCCCOCN(C(=O)CCl)c1c(CC)cccc1CC,water,298,-4.193,mol/L
CO[P](=O)(OC)OC1=C(Cl)C2C=CCC12,water,298,-2.001,mol/L
OC(=O)C1=CNC(=O)NC1=O,water,298,-1.938,mol/L
CCCCC1=C(C)NC(=NC1=O)NCC,water,298,-3.02,mol/L
CC(C)(NC(=O)c1cc(Cl)cc(Cl)c1)C#C,water,298,-4.232,mol/L
CC1=C(CCCO1)C(=O)Nc2ccccc2,water,298,-2.559,mol/L
Cc1occc1C(=O)Nc2ccccc2,water,298,-3.304,mol/L
CCO[P](=S)(OCC)SCCl,water,298,-3.592,mol/L
CNC(=O)N(C)c1sc(nn1)C(F)(F)F,water,298,-2.058,mol/L
CCOC1Oc2ccc(O[S](C)(=O)=O)cc2C1(C)C,water,298,-3.416,mol/L
CCNc1nc(NC(C)CC)nc(OC)n1,water,298,-2.575,mol/L
CCCN(CC1CC1)c2c(cc(cc2[N+]([O-])=O)C(F)(F)F)[N+]([O-])=O,water,298,-6.541,mol/L
CC(Cl)=CCl,water,298,-1.614,mol/L
ClC(Cl)C(=O)NC1=C(Cl)C(=O)c2ccccc2C1=O,water,298,-5.026,mol/L
OC(=O)c1cccc(Cl)c1C(O)=O,water,298,-0.976,mol/L
CCOC(C)C(=O)C(O)O,water,298,-0.171,mol/L
CCN(CC)c1c(cc(c(N)c1[N+]([O-])=O)C(F)(F)F)[N+]([O-])=O,water,298,-5.467,mol/L
CCCN(CCC)c1c(cc(c(N)c1[N+]([O-])=O)C(F)(F)F)[N+]([O-])=O,water,298,-7.43,mol/L
CCSCc1ccccc1OC(=O)NC,water,298,-2.093,mol/L
OCCOCCOC(=O)c1ccccc1Nc2cccc(c2)C(F)(F)F,water,298,-5.363,mol/L
Cc1cc2cccc3ccc4c5ccccc5cc1c4c23,water,298,-8.522,mol/L
COc1cc(Oc2ccc(Cl)cc2Cl)ccc1[N+]([O-])=O,water,298,-6.02,mol/L
CCCN(CCCl)c1c(cc(cc1[N+]([O-])=O)C(F)(F)F)[N+]([O-])=O,water,298,-4.551,mol/L
CCC(C)Nc1c(cc(cc1[N+]([O-])=O)C(C)(C)C)[N+]([O-])=O,water,298,-5.47,mol/L
CCCN(CCC)c1c(cc(cc1[N+]([O-])=O)C(C)C)[N+]([O-])=O,water,298,-6.49,mol/L
CNC(=O)N(C)c1sc(nn1)C(C)(C)C,water,298,-1.997,mol/L
Clc1cc(Br)c(OC(=O)C=C)c2ncccc12,water,298,-4.717,mol/L
CCO[P](=S)(NC(C)CC)Oc1cc(C)ccc1[N+]([O-])=O,water,298,-4.814,mol/L
CCC#CC(C)C,water,298,-2.745,mol/L
CO[P](=S)(OC)SCCSC(C)C,water,298,-3.429,mol/L
CCCCCCCCCCCCCCCCO,water,298,-7.258,mol/L
CCC(C)N(C(C)CC)C(=O)SCc1ccccc1,water,298,-5.048,mol/L
NC(=O)c1cc(Cl)cc(Cl)c1N,water,298,-2.081,mol/L
CCCCCCCCCOC(=O)c1ccc(N)cc1,water,298,-6.001,mol/L
ClC(Cl)C(=O)N(CC=C)CC=C,water,298,-1.619,mol/L
CC(C)(C)C(=O)C(Oc1ccc(Cl)cc1)n2ccnc2,water,298,-4.726,mol/L
CC\1=C(CC(O)=O)c2cc(F)ccc2C1=C\c3ccc(cc3)[S](C)=O,water,298,-4.552,mol/L
CCOC(=O)CN(C(=O)CCl)c1c(CC)cccc1CC,water,298,-3.473,mol/L
CC1(C)C(C(=O)OC(C#N)c2cccc(Oc3ccccc3)c2)C1(C)C,water,298,-6.025,mol/L
COC(=O)[C@@H]1C2CC(C=C2)[C@@H]1C(=O)OC,water,298,-1.202,mol/L
CCC(CC)Nc1c(cc(C)c(C)c1[N+]([O-])=O)[N+]([O-])=O,water,298,-5.972,mol/L
COC(C)(C)CCCC(C)C\C=C\C(C)=C\C(=O)OC(C)C,water,298,-5.346,mol/L
CCOC(=O)\C=C(C)\C=C\CC(C)CCCC(C)C,water,298,-5.693,mol/L
COc1ccc(cc1C)C(=O)c2cccc(C)c2,water,298,-5.08,mol/L
Cc1cccc2sc3nncn3c12,water,298,-2.073,mol/L
COCCN(C(=O)CCl)c1c(C)cccc1C,water,298,-2.086,mol/L
CC(=O)O[C@@H](C(O)=O)c1ccccc1,water,298,-1.231,mol/L
CNC(=O)Oc1ccccc1OC(CCl)OC,water,298,-2.301,mol/L
CC(C)OC(=O)C(C)N(C(=O)c1ccccc1)c2ccc(F)c(Cl)c2,water,298,-4.306,mol/L
CC1(C)[C@@H](C=C(Br)Br)[C@H]1C(=O)O[C@H](C#N)c2cccc(Oc3ccccc3)c2,water,298,-8.402,mol/L
CC(=O)Nc1cc(N[S](=O)(=O)C(F)(F)F)c(C)cc1C,water,298,-3.237,mol/L
O=C1CN(CC2N1CCc3ccccc23)C(=O)C4CCCCC4,water,298,-2.893,mol/L
CCN(CC(C)=C)c1c(cc(cc1[N+]([O-])=O)C(F)(F)F)[N+]([O-])=O,water,298,-6.222,mol/L
OC(=O)COc1nc(Cl)c(Cl)cc1Cl,water,298,-2.766,mol/L
CO[P](=S)(OC)Oc1c(Cl)cc(C)cc1Cl,water,298,-5.877,mol/L
CC(C)OC(=O)[C@H](C)N(C(=O)c1ccccc1)c2ccc(F)c(Cl)c2,water,298,-4.561,mol/L
COC1OC(CNC(=O)N(CCCl)N=O)C(O)C(O)C1O,water,298,0.087,mol/L
CN1C=C(c2ccccc2)C(=O)C(=C1)c3cccc(c3)C(F)(F)F,water,298,-4.438,mol/L
OC(c1ccc(Cl)cc1)(c2cncnc2)c3ccccc3Cl,water,298,-4.383,mol/L
CCCC1COC(Cn2cncn2)(O1)c3ccc(Cl)cc3Cl,water,298,-3.493,mol/L
CCN(Cc1c(F)cccc1Cl)c2c(cc(cc2[N+]([O-])=O)C(F)(F)F)[N+]([O-])=O,water,298,-6.625,mol/L
CO[P](=S)(OC)SCC(=O)N(C(C)C)c1ccc(Cl)cc1,water,298,-4.432,mol/L
Nc1nc(N)nc(NC2CC2)n1,water,298,-1.179,mol/L
CC(C)Oc1cccc(NC(=O)c2ccccc2C(F)(F)F)c1,water,298,-4.532,mol/L
CCOC(=O)C(C)Oc1cccc(Oc2sc3cc(Cl)ccc3n2)c1,water,298,-5.674,mol/L
Cc1cccc(C)c1N(Cn2cccn2)C(=O)CCl,water,298,-4.213,mol/L
CC(CN1C[C@H](C)O[C@H](C)C1)Cc2ccc(cc2)C(C)(C)C,water,298,-3.637,mol/L
CCOC(=O)CNc1nc(Cl)nc(NC(C)C)n1,water,298,-2.562,mol/L
CC(C)C(Nc1ccc(cc1Cl)C(F)(F)F)C(=O)OC(C#N)c2cccc(Oc3ccccc3)c2,water,298,-8.4,mol/L
Clc1cccc(c1)N(C2CCOC2=O)C(=O)C3CC3,water,298,-2.688,mol/L
CCCCOC(=O)C(C)Oc1ccc(Oc2ccc(cn2)C(F)(F)F)cc1,water,298,-5.584,mol/L
COC(=O)c1cc(C)ccc1C2=NC(C)(C(C)C)C(=O)N2,water,298,-2.326,mol/L
COC(=O)C(C)N(C(=O)Cc1ccccc1)c2c(C)cccc2C,water,298,-3.944,mol/L
CCOC(=O)NCCOc1ccc(Oc2ccccc2)cc1,water,298,-4.701,mol/L
CC(Oc1ccccc1Cl)C(O)=O,water,298,-2.223,mol/L
CCOC(=O)C(C)Oc1ccc(Oc2cnc3cc(Cl)ccc3n2)cc1,water,298,-6.094,mol/L
CCOC(=O)C(C)Oc1ccc(Oc2oc3cc(Cl)ccc3n2)cc1,water,298,-5.604,mol/L
CC(C)C12CCC(C)(O1)C(C2)OCc3ccccc3C,water,298,-3.639,mol/L
CCCCC(Cn1cncn1)(C#N)c2ccc(Cl)cc2,water,298,-3.308,mol/L
CCCCC,water,298,-3.18,mol/L
C1CCCC1,water,298,-2.64,mol/L
CCCCCC,water,298,-3.84,mol/L
CCC(C)(C)C,water,298,-3.55,mol/L
C1CCCCC1,water,298,-3.1,mol/L
C1CCCC1C,water,298,-3.3,mol/L
CCCCCCC,water,298,-4.53,mol/L
C1CCCCC1C,water,298,-3.85,mol/L
CCCCCCCC,water,298,-5.24,mol/L
C1CCCCCC1,water,298,-3.52,mol/L
C1CCCCCCC1,water,298,-4.15,mol/L
CCC=CC,water,298,-2.54,mol/L
C1CC=CC1,water,298,-2.1,mol/L
CCCCC=C,water,298,-3.23,mol/L
CC(C)CC=C,water,298,-3.24,mol/L
CCCCC=CC,water,298,-3.82,mol/L
C1CC=C(C)CC1,water,298,-3.27,mol/L
CCCCCCC=C,water,298,-4.44,mol/L
CCCCCCCC=C,water,298,-5.05,mol/L
C=CCCC=C,water,298,-2.68,mol/L
C=C(C)C=C,water,298,-2.03,mol/L
C=CC=C,water,298,-1.87,mol/L
C1C=CCC=C1,water,298,-1.97,mol/L
C(=CCC(C(=C)C)C1)(C1)C,water,298,-4.0,mol/L
CCCC#C,water,298,-1.64,mol/L
CCCCC#C,water,298,-2.36,mol/L
CCCCCCCC#C,water,298,-4.24,mol/L
c1ccccc1C,water,298,-2.21,mol/L
c1cccc(C)c1C,water,298,-2.8,mol/L
c1cc(C)ccc1C,water,298,-2.77,mol/L
c1ccc(C)cc1C,water,298,-2.82,mol/L
c1ccccc1CCC,water,298,-3.37,mol/L
c1cc(C)cc(C)c1C,water,298,-3.31,mol/L
c1ccc(C)c(C)c1C,water,298,-3.2,mol/L
c1cccc(C)c1CC,water,298,-3.21,mol/L