Solute,Solvent,Temperature_K,Solubility,Units
CC(Cl)(Cl)Cl,water,298,-2.648050853,mol/L
CCCCCCCCC(O)=O,water,298,-2.722197764,mol/L
OC(=O)c1ccc2cc(O)ccc2c1,water,298,-3.278942885,mol/L
[Ni][Ni][Ni]=[S]=S,water,298,-4.514309168,mol/L
CC(C)(C)c1ccc(C=C)cc1,water,298,-4.563351028,mol/L
Cc1cc(C)cc(c1)C(Cl)=O,water,298,-3.32928972,mol/L
[OH-].[OH-].[Cu++].[Cu++].[O-]C([O-])=O,water,298,-5.143219117,mol/L
o1c(cnc1c2ccccc2)c3ccccc3,water,298,-5.553210296,mol/L
O=[Mn]=O,water,298,-6.161048404,mol/L
CCC(N)(CO)CO,water,298,0.901578533,mol/L
O[Cr](=O)(=O)O[Cr](O)(=O)=O.c1ccncc1.c2ccncc2,water,298,0.399087129,mol/L
CC(CN)CCCN,water,298,0.889006483,mol/L
[NH3+][C@H]1CCCC[C@H]1[NH3+],water,298,0.889006483,mol/L
[Na+].[O-]CCS,water,298,0.953730344,mol/L
O=C1N(CC2CO2)C(=O)N(CC3CO3)C(=O)N1CC4CO4,water,298,-1.495423095,mol/L
CN(C)Cc1cc(CN(C)C)c(O)c(CN(C)C)c1,water,298,0.505516371,mol/L
[Cs+].OC=O,water,298,0.674687201,mol/L
OC(=O)COCCOCC(O)=O,water,298,0.670925028,mol/L
COCNC(=O)C(C)=C,water,298,0.791965313,mol/L
NC#N,water,298,1.279416949,mol/L
[Na+].[Na+].[Na+].[Na+].[Na+].[O-]C(=O)CN(CCN(CC([O-])=O)CC([O-])=O)CCN(CC([O-])=O)CC([O-])=O,water,298,0.201298437,mol/L
CCCCNC1CC(C)(C)NC(C)(C)C1,water,298,0.57461503,mol/L
NC(N)=O.OC[P+](CO)(CO)CO.O[S]([O-])(=O)=O,water,298,0.403692118,mol/L
[Na+].[Na+].[Na+].NC(=O)Nc1cc(Nc2nc(N)nc(Cl)n2)ccc1N=Nc3cc4c(cc(cc4[S]([O-])(=O)=O)[S]([O-])(=O)=O)cc3[S]([O-])(=O)=O,water,298,-1.000000587,mol/L
[Na+].[Na+].[O-][Si](=O)O[Si]([O-])=O,water,298,0.584676017,mol/L
CC(C)(C)OO,water,298,0.884647226,mol/L
[Na+].CC1=NN(C(=O)C1N\N=C\2C=C(C=C(Cl)C2=O)[N+]([O-])=O)c3ccc(cc3)[S]([O-])(=O)=O,water,298,-0.838577173,mol/L
O.O.O.O.O.O.[Co++].[O-][N+]([O-])=O.[O-][N](=O)=O,water,298,0.361876193,mol/L
[Cl-].NC(N)=O.OC[P+](CO)(CO)CO,water,298,0.425111841,mol/L
CC(O)CN(CC(C)O)C(=O)CCCCC(=O)N(CC(C)O)CC(C)O,water,298,0.210993363,mol/L
OC(=O)CCS,water,298,0.754917543,mol/L
[OH-].[OH-].[OH-].[Cl-].[Cu++].[Cu++],water,298,-0.550657642,mol/L
[H+].[Cl-].COC(=O)C(N)CO,water,298,0.577420768,mol/L
CC1(C)COC(=O)C1O,water,298,0.651530723,mol/L
[Na+].[Cr+3].Cc1nn(c([O-])c1N=Nc2cc(Cl)c(cc2[O-])[S](N)(=O)=O)c3ccccc3.Cc4nn(c([O-])c4N=Nc5cc(Cl)c(cc5[O-])[S](N)(=O)=O)c6ccccc6,water,298,-2.692470897,mol/L
CN(C)CCOCCN(C)CCO,water,298,0.476465736,mol/L
NC#N,water,298,1.124514989,mol/L
NCCN1CCNC1=O,water,298,0.63354594,mol/L
[Na+].[Na+].[Na+].[Na+].Nc1c(N=Nc2ccc(cc2)[S](=O)(=O)CCO[S]([O-])(=O)=O)c(cc3C=C(/C(=N/Nc4ccc(cc4)[S](=O)(=O)CCO[S]([O-])(=O)=O)C(=O)c13)[S]([O-])(=O)=O)[S]([O-])(=O)=O,water,298,-0.255286517,mol/L
OCC(O)CO,water,298,0.776131353,mol/L
[Na+].[O-]C(=O)C=C,water,298,0.763856932,mol/L
[Cl-].CC(C)(C)CC(C)(C)c1ccc(OCCOCC[N+](C)(C)Cc2ccccc2)cc1,water,298,0.083433609,mol/L
[Cl-].CC(C)(C)CC(C)(C)c1ccc(OCCOCC[N+](C)(C)Cc2ccccc2)cc1,water,298,0.076175036,mol/L
NC#N,water,298,1.100602832,mol/L
[Cl-].CC(C)(C)CC(C)(C)c1ccc(OCCOCC[N+](C)(C)Cc2ccccc2)cc1,water,298,0.072909649,mol/L
CC(C)(CO)[C@@H](O)C(=O)NCCCO,water,298,0.394426153,mol/L
CN(C)CCCN1CN(CCCN(C)C)CN(CCCN(C)C)C1,water,298,0.16421307,mol/L
[Cr].CC([O-])=O,water,298,0.653490551,mol/L
C[C@@H]1O[C@@H](O[C@@H]2[C@H](C)O[C@@H](O)[C@@H](O[S](O)(=O)=O)[C@@H]2O[S](O)(=O)=O)[C@@H](O[S](O)(=O)=O)[C@H](O[C@@H]3O[C@@H](C)[C@@H](O[C@@H]4O[C@@H](C)[C@@H](O)[C@@H](O[C@@H]5O[C@@H](C)[C@@H](O)[C@@H](O[S](O)(=O)=O)[C@@H]5O[S](O)(=O)=O)[C@@H]4O[S](O)(=O)=O)[C@@H](O[S](O)(=O)=O)[C@@H]3O[S](O)(=O)=O)[C@@H]1O.OC[C@@H](O)[C@@H](O)[C@H](O)[C@H](O)CO.O[C@@H]6O[C@@H]([C@@H](O[C@@H]7O[C@@H]([C@@H](O)[C@H](O)[C@@H]7O)C(O)=O)[C@H](O)[C@@H]6O)C(O)=O,water,298,-0.589205864,mol/L
CC(O)CN(CC(C)O)CC(C)O,water,298,0.417320876,mol/L
[Cl-].NCCCC[C@H](N)C(O)=O.[H+],water,298,0.43734795,mol/L
[Na+].CC(C)(C[S]([O-])(=O)=O)NC(=O)C=C,water,298,0.338692866,mol/L
CC1(O)CC(C)(O)OO1,water,298,0.571440842,mol/L
NCCNCCNCCNCCNCCN,water,298,0.332778733,mol/L
CN(C)CCCNC1CC(C)(C)NC(C)(C)C1,water,298,0.316191362,mol/L
[Ni++].O[P](O)([O-])=O.O[P](O)([O-])=O,water,298,0.296424918,mol/L
[Na+].CC(C)COC(=O)CC(C(=O)OCC(C)C)[S]([O-])(=O)=O,water,298,0.177374321,mol/L
[Na+].CC(C)CC(C)OC(=O)CC(C(=O)OC(C)CC(C)C)[S]([O-])(=O)=O,water,298,0.109625935,mol/L
[Na+].CCCCC(CC)CO[S]([O-])(=O)=O,water,298,0.332963796,mol/L
[Na+].CCC([O-])=O,water,298,0.716422901,mol/L
[Na+].[Na+].[Na+].OC1=CC(=O)\C(C=C1N=Nc2ccc(N=Nc3ccc(Nc4ccc(cc4[S]([O-])(=O)=O)[N+]([O-])=O)cc3)c5c2cccc5[S]([O-])(=O)=O)=N/Nc6ccc(Nc7ccc(cc7[S]([O-])(=O)=O)[N+]([O-])=O)cc6,water,298,-0.322577337,mol/L
Cc1ccc(cc1)[S](O)(=O)=O.CC2(C)CC(N)CC(C)(CN)C2,water,298,0.157298187,mol/L
[Na+].[O-]C(=O)C=C,water,298,0.715084111,mol/L
[OH-].C[N+](C)(C)CCO,water,298,0.603205321,mol/L
[Na+].[K+].Oc1ccc2ccccc2c1N=Nc3ccc(cc3)N=Nc4cccc(c4)[S](=O)(=O)Nc5ccc6cc(cc(c6c5)[S]([O-])(=O)=O)[S]([O-])(=O)=O,water,298,-1.209646244,mol/L
CC(CCN)CC(C)(C)CN,water,298,0.478156217,mol/L
[Na+].CCCCCCCCO[S]([O-])(=O)=O,water,298,0.287206306,mol/L
CCNc1ccc(cc1C)C(c2ccc(NCC)c(C)c2)=C3C=CC(=NCC)C(=C3)C.CC(O)=O,water,298,-1.023221287,mol/L
CCCCCCCCCCCC(=O)NCCC[N+](C)(C)C.CO[S]([O-])(=O)=O,water,298,-0.011381165,mol/L
CC(O)CNCC(C)O,water,298,0.477585112,mol/L
[Na+].CCCCCCC(CCCC)CO[S]([O-])(=O)=O,water,298,0.142087324,mol/L
[Na+].[Na+].[Na+].[Na+].[Na+].NC(=O)Nc1cc(Nc2nc(Cl)nc(Nc3cc(N)c(cc3N=Nc4ccc(cc4)[S](=O)(=O)CCO[S]([O-])(=O)=O)[S]([O-])(=O)=O)n2)ccc1N=Nc5cc6c(cc(cc6[S]([O-])(=O)=O)[S]([O-])(=O)=O)cc5[S]([O-])(=O)=O,water,298,-0.510557544,mol/L
[Na+].[Na+].[Na+].[Na+].[Na+].[Na+].[O-][S](=O)(=O)c1ccc(cc1)N=Nc2ccc(N\N=C\3C(=O)c4ccc(NC(=O)Nc5ccc6C(=O)C(=N/Nc7ccc(cc7[S]([O-])(=O)=O)N=Nc8ccc(cc8)[S]([O-])(=O)=O)\C(=Cc6c5)[S]([O-])(=O)=O)cc4C=C3[S]([O-])(=O)=O)c(c2)[S]([O-])(=O)=O,water,298,-0.569498545,mol/L
[Li+].CCCCCCCCCCCCO[S]([O-])(=O)=O,water,298,0.10896299,mol/L
[Na+].CCCCCCCCCCO[S]([O-])(=O)=O,water,298,0.102988053,mol/L
[K+].[Fe+3].[O-]C(=O)CN(CCN(CC([O-])=O)CC([O-])=O)CC([O-])=O,water,298,-0.092012803,mol/L
CCCCCCCC\C=C/CCCCCCCC(=O)N(C)CC(O)=O.OCCN(CCO)CCO,water,298,0.775780406,mol/L
CC(O)=O.OCCN(CCO)CCO,water,298,1.156472392,mol/L
OCC(O)=O,water,298,0.596016326,mol/L
[H+].[Cl-].CN(C)C(=N)N=C(N)N,water,298,0.257987497,mol/L
N#CCN(CC#N)CC#N,water,298,-1.647557834,mol/L
[K+].CCCCCCCC\C=C/CCCCCCCC(=O)N(C)CC([O-])=O,water,298,-0.121592004,mol/L
CC(C)OC(C)=O,water,298,-0.546768091,mol/L
CC(=O)OCC(=C)COC(C)=O,water,298,-0.77961667,mol/L
Cc1ccccc1O[P](S)(=S)Oc2ccccc2C,water,298,-1.060529965,mol/L
CCCC(CCC)CCCC1COCCN1CCO,water,298,0.964258162,mol/L
[Na+].CNCC[S]([O-])(=O)=O,water,298,0.19068814,mol/L
[Na+].CCCCCCCCCCCCCCCO[S]([O-])(=O)=O,water,298,-0.121186775,mol/L
[Al+3].[Cl-].[Cl-].[Cl-].[Cl-].[Cl-].[Cl-].[Cl-].[Ti+4],water,298,-0.111289404,mol/L
COC(=O)CCCCC(=O)OC,water,298,-0.84309817,mol/L
[Na+].[Na+].Nc1c2C(=O)c3ccccc3C(=O)c2c(Nc4cccc(c4)[S](=O)(=O)CCO[S]([O-])(=O)=O)cc1[S]([O-])(=O)=O,water,298,-0.454535826,mol/L
O[C@@H]1CO[C@@H]2[C@@H](O)CO[C@H]12,water,298,1.177450183,mol/L
COc1cc(ccc1NC(=O)c2ccc(cc2)N=Nc3c(O)nc(NC#N)nc3[O-])N=Nc4ccc5cc(cc(c5c4)[S]([O-])(=O)=O)[S]([O-])(=O)=O.OCC[NH+](CCO)CCO.OCC[NH+](CCO)CCO.OCC[NH+](CCO)CCO,water,298,-0.744942356,mol/L
NCc1ccc(CN)cc1,water,298,1.175071806,mol/L
COC1COC2C(COC12)OC,water,298,1.059991817,mol/L
[Na+].[Na+].[O-][S](=O)(=O)c1cc2ccc(nc2c(c1)[S]([O-])(=O)=O)C3C(=O)c4ccccc4C3=O,water,298,-0.377836954,mol/L
[NH4+].COc1cc(c(C)cc1NC(=O)CC(C)=O)[S]([O-])(=O)=O,water,298,-0.201876223,mol/L
[Na+].[Na+].[Na+].[Na+].Oc1cc(O)c(cc1N=Nc2ccc(Nc3ccc(cc3[S]([O-])(=O)=O)[N+]([O-])=O)cc2)N=Nc4cc(cc5cc(c(N=Nc6ccc(Nc7ccc(cc7[S]([O-])(=O)=O)[N+]([O-])=O)cc6)c(O)c45)[S]([O-])(=O)=O)[S]([O-])(=O)=O,water,298,-0.76675145,mol/L
[Na+].[Na+].[O-][S](=O)(=O)c1cccc(c1)N=Nc2ccc(N=Nc3ccc(Nc4ccccc4)c5c3cccc5[S]([O-])(=O)=O)c6ccccc26,water,298,-0.532539726,mol/L
CCCCCCCCCCCCN(CCCN)CCCN,water,298,-0.197711374,mol/L
COc1cc(ccc1NC(=O)c2ccc(cc2)N=Nc3c(O)nc(NC#N)nc3[O-])N=Nc4ccc5cc(cc(c5c4)[S]([O-])(=O)=O)[S]([O-])(=O)=O.OCC[NH+](CCO)CCO.OCC[NH+](CCO)CCO.OCC[NH+](CCO)CCO,water,298,-0.821648982,mol/L
[Na+].CC(C)CCCCCCCOC(=O)CC(C(=O)OCCCCCCCC(C)C)[S]([O-])(=O)=O,water,298,-0.469106118,mol/L
[H+].[Cl-].CC(C)(N=NC(C)(C)C(N)=N)C(N)=N,water,298,-0.145139333,mol/L
Nc1[nH]ncn1,water,298,1.216433057,mol/L
[Na+].CCCCCCCCCCCCO[S]([O-])(=O)=O,water,298,-0.346029315,mol/L
[Sm+3].[O-][N+]([O-])=O.[O-][N+]([O-])=O.[O-][N+]([O-])=O,water,298,0.559539993,mol/L
[NH4+].[Cl-].[Cl-].[Cl-].[Cl-].[Au+3],water,298,0.522369686,mol/L
[Cl-].COC[P+](c1ccccc1)(c2ccccc2)c3ccccc3,water,298,0.506344271,mol/L
[NH4+].[Cl-].[Cl-].[Cl-].[Cl-].[Au+3],water,298,0.488945931,mol/L
[NH4+].[Cl-].[Cl-].[Cl-].[Cl-].[Au+3],water,298,0.479365517,mol/L
[Ca++].[O-][PH]([O-])=O,water,298,0.948776933,mol/L
[Na+].[O-]C(=O)C=C,water,298,0.043697629,mol/L
N.N.N.N.[Pd++].CC([O-])=O.CC([O-])=O,water,298,0.541425963,mol/L
N.N.N.N.[Pd++].CC([O-])=O.CC([O-])=O,water,298,0.540571892,mol/L
[OH-].[OH-].[OH-].[Cl-].[Cu++].[Cu++],water,298,-0.32521074,mol/L
N.N.N.N.[Pd++].CC([O-])=O.CC([O-])=O,water,298,0.537138717,mol/L
CC(CO)(CO)C=O,water,298,0.928933376,mol/L
NCCNCCNCCN.NCCN(CCN)CCN,water,298,0.533909766,mol/L
NCCNCCNCCNCCN.NCCNCCN(CCN)CCN,water,298,0.421803331,mol/L
CNCC(O)C(O)C(O)C(O)CO,water,298,0.709486815,mol/L
CN(C)CCCN,water,298,0.990629851,mol/L
[Cl-].CCN(CCC[NH+](C)C)C#N,water,298,0.717364294,mol/L
CCC1(CO)COCOC1,water,298,0.835094217,mol/L
CC(C)(C)CCCCCCCC(O)=O,water,298,-1.540552834,mol/L
CC(C)(C)CCCCCCCC(O)=O,water,298,-2.111396949,mol/L
CN1CCCN(C)C1=O,water,298,0.892196674,mol/L
OCCOCCOCCCNc1ccc(NCCCOCCOCCO)c2C(=O)c3ccccc3C(=O)c12,water,298,0.275218022,mol/L
OCC1CN2CCN1CC2,water,298,0.847094295,mol/L
CN1CCN(C)CC1,water,298,0.942364321,mol/L
CCOCCOCCOC,water,298,0.829145936,mol/L
CCN1CCCC1=O,water,298,0.946307061,mol/L
OCCCOC(=O)C=C,water,298,0.885579186,mol/L
Cn1ccnc1,water,298,1.085625105,mol/L
CC(O)CN(CCCN(C)C)CCCN(C)C,water,298,0.610105975,mol/L
NCCOCCN,water,298,0.982328216,mol/L
COCCOCCOCCOCCOC,water,298,0.653097658,mol/L
COCCOCCOCCOC,water,298,0.749024066,mol/L
CC1CNCC(C)O1,water,298,0.938638008,mol/L
CN(C)CCOC(=O)C=C,water,298,0.844099443,mol/L
OC(=O)CCl,water,298,1.024581979,mol/L
NCCO.OC(=O)CS,water,298,0.81473273,mol/L
CC(CCC(O)=O)C(O)=O,water,298,0.835224954,mol/L
OC(=O)CC(=O)C(O)=O,water,298,0.879192534,mol/L
OCC(O)COCC(O)CO,water,298,0.77943954,mol/L
Cl.CC1=C(CCCl)C(=O)N2CCCCC2=N1,water,298,0.57976692,mol/L
OCN1C(NC(=O)NCNC(=O)NC2N(CO)C(=O)NC2=O)C(=O)NC1=O,water,298,0.410835965,mol/L
NCC(O)CO,water,298,1.040433953,mol/L
CC1(C)COC(=O)C1O,water,298,0.885579186,mol/L
Cc1[nH]ncc1,water,298,1.085625105,mol/L
CC(=O)CC(N)=O,water,298,0.995227367,mol/L
OCC1COC(=O)O1,water,298,0.927794233,mol/L
CC(=O)N1CCOCC1,water,298,0.888875326,mol/L
OCCOCC(COCCO)OCCO,water,298,0.649261738,mol/L
[Cl-].C[N+](C)(C)C,water,298,0.960189446,mol/L
CN(C)C(=O)CC(C)=O,water,298,0.888875326,mol/L
CN(C)CCCNC=O,water,298,0.885419037,mol/L
CC(=O)N(CCN(C(C)=O)C(C)=O)C(C)=O,water,298,0.641593019,mol/L
CNC=O,water,298,1.228647734,mol/L
[Al+3].[Cl-].[Cl-].[Cl-],water,298,0.875036292,mol/L
[NH4+].[O-]C(=O)CS,water,298,0.96197626,mol/L
[NH4+].[S-]C#N,water,298,1.118478399,mol/L
OCCN(CCO)CCO.OCCN(CCO)CCO.OC(=O)CCCCCCCCCCC(O)=O,water,298,0.276803833,mol/L
CN(CCCN)CCCN,water,298,0.837883859,mol/L
[Cl-].[Cs+],water,298,0.773766242,mol/L
[OH-].[Cs+],water,298,0.824163602,mol/L
[Ca++].OCC1OB(O)OC1C(O)C(O)C([O-])=O.OCC2OB(O)OC2C(O)C(O)C([O-])=O,water,298,0.316972785,mol/L
NCCO.NCCO.OC(O)=O,water,298,0.734729236,mol/L
[Cs+].[Cs+].[O-][S]([O-])(=O)=O,water,298,0.441443819,mol/L
[K+].OC(=O)CCCCC(O)=O,water,298,0.732265228,mol/L
[Na+].[Na+].CCN(Cc1cccc(c1)[S]([O-])(=O)=O)c2ccc(cc2)N=Nc3ccc(N=Nc4cccc(c4)[S]([O-])(=O)=O)c5ccccc35,water,298,0.171543767,mol/L
[Na+].[Na+].Nc1ccc(NNC2=C3C(=O)C=C(C=C3C=CC2=N)[S]([O-])(=O)=O)c(c1)[S]([O-])(=O)=O,water,298,0.316586399,mol/L
CC(=O)OCCOCCOCCOC(C)=O,water,298,0.630324108,mol/L
CCOC(=O)N1CCC(=O)CC1,water,298,0.766506387,mol/L
CCC[NH2+]CC,water,298,1.054659457,mol/L
[Cl-].[Cl-].[Cl-].[In+3],water,298,0.655260037,mol/L
COC(=O)CC(C)=O,water,298,0.935107933,mol/L
NC(=O)c1ccc[n+](c1)C2OC(CO[P]([O-])(=O)O[P](O)(=O)OCC3OC(C(O)C3O)n4cnc5c(N)ncnc45)C(O)C2O,water,298,0.178204894,mol/L
CCCCCCCC[P](O)(O)=O,water,298,0.711726176,mol/L
O=C1CCCCCO1,water,298,0.942546912,mol/L
O=C1CCCO1,water,298,1.065047292,mol/L
C1CCNCC1,water,298,1.069815348,mol/L
[K+].[S-]C#N,water,298,1.012409699,mol/L
[K+].[O-][P](=O)(OCc1ccccc1)OCc2ccccc2,water,298,0.499854127,mol/L
[K+].[O-]C=O,water,298,1.075126551,mol/L
OCC#C,water,298,1.25131592,mol/L
OCCCO,water,298,1.118643879,mol/L
Nc1ccccn1,water,298,1.026331925,mol/L
OCc1cccnc1,water,298,0.962063804,mol/L
[Na+].CCCCC(CC)C([O-])=O,water,298,0.779379433,mol/L
[Na+].COCCOCCOc1cc(Nc2c(C)cc(C)c(c2C)[S]([O-])(=O)=O)c3C(=O)c4ccccc4C(=O)c3c1N,water,298,0.239123102,mol/L
[Na+].CCOC(=O)c1ccc([O-])cc1,water,298,0.725477312,mol/L
[Na+].CCO[P]([S-])(=S)OCC,water,298,0.681477558,mol/L
[Na+].CC(C)CO[P]([S-])(=S)OCC(C)C,water,298,0.57785683,mol/L
[Na+].[S-]C#N,water,298,1.091113043,mol/L
[Na+].[O-]C=O,water,298,1.167446383,mol/L
[Na+].OC[S]([O-])=O,water,298,0.927790555,mol/L
CC(C)COC(C)(C)C,water,298,0.885285625,mol/L
C[N+](C)(C)C.OC(=O)c1ccccc1C([O-])=O,water,298,0.621109935,mol/L
[OH-].C[N+](C)(C)C,water,298,1.040224269,mol/L
[Na+].[Na+].[Na+].Cc1cc(N\N=C\2C=CC(=O)C(=C2)C([O-])=O)c(OCCC[S]([O-])(=O)=O)cc1N=Nc3ccc(cc3[S]([O-])(=O)=O)[N+]([O-])=O,water,298,0.161450613,mol/L
[Zn++].[O-][P]([O-])([O-])=O.[O-][P]([O-])([O-])=O,water,298,0.592898155,mol/L
COCC(C)OC(C)=O,water,298,-0.121096744,mol/L
CC1(C)CC(O)CC(C)(C)N1,water,298,-0.196609986,mol/L
NCCN1CCNCC1,water,298,-0.111286043,mol/L
CC(C)OCCO,water,298,-0.017655104,mol/L
NC(=O)CCNCCO,water,298,-0.121109888,mol/L
CCN(CC)c1ccc(cc1)[C+](c2ccccc2)c3ccc(cc3)N(CC)CC.CC([O-])=O,water,298,-0.647988018,mol/L
OCCCCO,water,298,0.045169179,mol/L
CO[P](C)(=O)OC,water,298,-0.093687784,mol/L
CO[P+](=O)OC,water,298,-0.037589826,mol/L
[Na+].COc1ccc(cc1)N=Nc2ccc(cc2OC)N=Nc3cccc(c3)[S]([O-])(=O)=O,water,298,-0.65170047,mol/L
[Cr].CC([O-])=O,water,298,-0.045479453,mol/L
CN(C)[P+](CC1CCCCC1)(N(C)C)N(C)C.F[B-](F)(F)F,water,298,-1.507143452,mol/L
FC(F)(F)C(F)(F)C(=O)C(F)(C(F)(F)F)C(F)(F)F,water,298,-1.499743427,mol/L
[Cl-].[Cl-].[Cl-].[Cl-].[Pd++].[H+].[H+],water,298,-1.398370615,mol/L
[Pd++].[O-][N+]([O-])=O.[O-][N+]([O-])=O,water,298,-1.36253525,mol/L
[Na+].[Na+].[Na+].[Na+].[O-][S](=O)(=O)c1ccc(c(c1)N=Nc2ccc(N=Nc3ccc(N\N=C4/C(=O)C(=Cc5cc(Nc6ccccc6)ccc45)[S]([O-])(=O)=O)c7ccccc37)c8cc(ccc28)[S]([O-])(=O)=O)[S]([O-])(=O)=O,water,298,-2.023633484,mol/L
[O-][N+](=O)c1ccccc1,water,298,-1.80473955,mol/L
CC(=C)C(=O)OCCN1CCNC1=O,water,298,-2.297151854,mol/L
OCCN(CCO)C(=O)CCCCCCCCC=C,water,298,-2.761513586,mol/L
O=[Cu],water,298,-2.53888505,mol/L
CC(C)=CCCC(C)(OC=O)C=C,water,298,-4.040590426,mol/L
O=C1NC(=CC=N1)NC(=O)c2ccccc2,water,298,-5.159680215,mol/L
Nc1c(I)c(C([O-])=O)c(I)c(C([O-])=O)c1I,water,298,-1.569622787,mol/L
CCCCCCCCCCCCc1ccccc1[S](O)(=O)=O.CC(C)(N)CO,water,298,0.213791577,mol/L
OC(=O)\C=C/C(=O)OCCOCCOCCOC(=O)\C=C/C(O)=O,water,298,0.159532562,mol/L
CC1(C)CC(=O)CC(C)(C1)C#N,water,298,-1.527023181,mol/L
[Na+].[Na+].CC(CCO[S](=O)(=O)c1ccccc1)[N-]c2ccc([N-]C(C)CCO[S](=O)(=O)c3ccccc3)c4C(=O)c5ccccc5C(=O)c24,water,298,-0.437646111,mol/L
[Ce].[Ce].[O-]C(=O)C([O-])=O,water,298,-3.151169408,mol/L
[Na+].[Cr+3].[O-]c1cc(c2ccccc2c1N=Nc3ccc4cccc(c4c3[O-])[S]([O-])(=O)=O)[S]([O-])(=O)=O,water,298,-1.171951452,mol/L
Fc1cccc2CC(=O)Nc12,water,298,-2.225136908,mol/L
CC(C)CCCCCCCOCCCNCCCN,water,298,-3.204880928,mol/L
O=C1CCCCCCCCCCCC(=O)OCCO1,water,298,-4.196428448,mol/L
[Na+].[Na+].Nc1ccc(N=Nc2ccc(NC(=O)c3ccc(cc3)N=Nc4c(N)c5C(=O)C(=N/Nc6ccccc6)/C(=Cc5cc4[S]([O-])(=O)=O)[S]([O-])(=O)=O)cc2)c(N)c1,water,298,-1.340682714,mol/L
[Ce].[Ce].[O-]C(=O)C([O-])=O,water,298,-4.873295836,mol/L
[Ce].[Ce].[O-]C(=O)C([O-])=O,water,298,-5.118984724,mol/L
[Sr++].[O-][Ti]([O-])=O,water,298,-4.933184426,mol/L
[Sr++].[O-][Ti]([O-])=O,water,298,-5.254998028,mol/L
[Ce].[Ce].[O-]C(=O)C([O-])=O,water,298,-5.789441572,mol/L
[OH-].[OH-].[OH-].[Cl-].[Cu++].[Cu++],water,298,-5.60937281,mol/L
CCCCCCC(=O)OCC(CC)(CO)COC(=O)CCCC,water,298,-5.982567027,mol/L
[OH-].[OH-].[OH-].[Cl-].[Cu++].[Cu++],water,298,-5.83537752,mol/L
CCCCCCCC[Sn]1(CCCCCCCC)OC(=O)CS1,water,298,-6.445626155,mol/L
CCOC(=O)C1CCC(CC1)C(=O)OCC,water,298,-2.251273114,mol/L
CCCC[Sn](CCCC)(CCCC)CCCC,water,298,-6.55647141,mol/L
[Sr++].[O-][Ti]([O-])=O,water,298,-6.5279993,mol/L
ClCCCN1CCOCC1,water,298,0.786089298,mol/L
[Sr++].[O-][Ti]([O-])=O,water,298,-7.111309855,mol/L
[Y+3].[O-][N+]([O-])=O.[O-][N+]([O-])=O.[O-][N+]([O-])=O,water,298,0.545324138,mol/L
CC1=C(C#N)C(=O)N(CCC(O)=O)C(=C1)O,water,298,-1.443654068,mol/L
CC1=C(C(N)=O)C(=O)N(CCC(O)=O)C(=C1)O,water,298,-1.602448873,mol/L
[Y+3].[O-][N+]([O-])=O.[O-][N+]([O-])=O.[O-][N+]([O-])=O,water,298,0.312845272,mol/L
[Sm+3].[O-][N+]([O-])=O.[O-][N+]([O-])=O.[O-][N+]([O-])=O,water,298,0.213542852,mol/L
[Y+3].[O-][N+]([O-])=O.[O-][N+]([O-])=O.[O-][N+]([O-])=O,water,298,0.264947341,mol/L
CCCCCCCC(=O)NCCCC[C@H](N)C(O)=O,water,298,0.057570824,mol/L
[Na+].[Na+].[Na+].[Na+].[O-][P]([O-])(=O)O[P]([O-])([O-])=O,water,298,-0.194271049,mol/L
[Na+].[Na+].[Na+].[O-]O[P]([O-])(=O)CC([O-])=O,water,298,0.301076949,mol/L
[H+].[Cl-].CN(C\C=C\C#CC(C)(C)C)Cc1cccc2ccccc12,water,298,-1.68966529,mol/L
[H+].[Cl-].CN(C\C=C\C#CC(C)(C)C)Cc1cccc2ccccc12,water,298,-1.719860075,mol/L
[Na+].[K+].Nc1c(cc(NC2CCC(CC2)Nc3nc(F)nc(Nc4cc(ccc4[S]([O-])(=O)=O)[S]([O-])(=O)=O)n3)c5C(=O)c6ccccc6C(=O)c15)[S]([O-])(=O)=O,water,298,-0.75694657,mol/L
[Cl-].CCN(CC)c1ccc(cc1)/C=C(C#N)/C(=O)OCCC[N+](C)(C)CCOC(=O)\C(=C\c2ccc(cc2)N(CC)CC)C#N,water,298,-0.803618922,mol/L
FC(F)(F)[S](=O)(=O)N[S](=O)(=O)C(F)(F)F,water,298,0.454144176,mol/L
[Na+].[Cr+3].Cc1nn(c([O-])c1N=Nc2cc(Cl)cc(c2[O-])[S]([O-])(=O)=O)c3cccc(c3)[S]([O-])(=O)=O,water,298,-1.133167485,mol/L
CCCCOC(=O)CC(CC(=O)OCCCC)(OC(C)=O)C(=O)OCCCC,water,298,-2.604748621,mol/L
Nc1ccc(Cl)c(Cl)c1,water,298,-2.209565947,mol/L
CC(C)c1ccc(C=O)cc1,water,298,-2.170862856,mol/L
CCCCCCCC\C=C/CCCCCCCCOCCO,water,298,-2.494902829,mol/L
CC(C)(C)c1cc(CCC(O)=O)cc(n2nc3ccccc3n2)c1O,water,298,-5.53070544,mol/L
CCCCCCCC(=O)SCCC[Si](OCC)(OCC)OCC,water,298,-3.11468722,mol/L
C\C=C/C=C.C/C=C/C=C.C1CC=CC1,water,298,-3.009359523,mol/L
CCCCCCC(O)CCCCCCCCCCC(=O)OCC(O)CO,water,298,-3.397432456,mol/L
CCN(CC)C1=C[C@@H]2Oc3cc(N(CC)CC)c(C)cc3C(=C2C=C1C)c4ccccc4C(=O)OC,water,298,-7.687222082,mol/L
CCOC(=O)CC(NC1CCC(CC1)CC2CCC(CC2)NC(CC(=O)OCC)C(=O)OCC)C(=O)OCC,water,298,-3.744077739,mol/L
CC(CC(C)(C)C)CC(C)(C)CC(C)(C)C,water,298,-3.354968489,mol/L
CCCCCCCCCCCCCCC1CO1,water,298,-3.380990463,mol/L
COCC(NC(C)=O)C(=O)NCc1ccccc1,water,298,-3.398457379,mol/L
C1CCC\C=C/CC1,water,298,-3.042181595,mol/L
CCCCOCC(C)OCC(C)O,water,298,-0.653059623,mol/L
CCCCCCCCCCCCCCCCCCC(O)=O,water,298,-3.775990335,mol/L
CCCCCCCCCCCCCCCCC(O)=O,water,298,-3.733128222,mol/L
CCCCCCCCCCCCCCCCCC(O)=O,water,298,-3.755087841,mol/L
CCOC(C)(C)CC,water,298,-1.471935011,mol/L
CC(CO)CC(C)c1ccccc1,water,298,-2.346916077,mol/L
CC(CO)CC(C)c1ccccc1,water,298,-2.347457929,mol/L
CC(CO)CC(C)c1ccccc1,water,298,-2.348000458,mol/L
CC(CO)CC(C)c1ccccc1,water,298,-2.349632124,mol/L
Nc1c(Oc2ccccc2)cc(O)c3C(=O)c4ccccc4C(=O)c13,water,298,-4.219226833,mol/L
CCn1nc2cc(cc3C(=O)c4ccccc4c1c23)c5cc6nn(CC)c7c8ccccc8C(=O)c(c5)c67,water,298,-4.393183723,mol/L
O=C1c2ccccc2C(=O)c3c4[nH]c5c6C(=O)c7ccccc7C(=O)c6c8[nH]c9c(ccc%10C(=O)c%11ccccc%11C(=O)c9%10)c8c5c4ccc13,water,298,-4.509615108,mol/L
[O-][N+](=O)c1cc2c3ccccc3C(=O)c4ccc5c6ccc7C(=O)c8ccccc8c9ccc(c6c79)c1c5c24,water,298,-4.399238344,mol/L
CCOc1ccc(Nc2ccc(cc2[N+]([O-])=O)[S](=O)(=O)N(C)C)cc1,water,298,-4.261751621,mol/L
O=C(Nc1cc2c([nH]c3c2cc(NC(=O)c4ccccc4)c5C(=O)c6ccccc6C(=O)c35)c7C(=O)c8ccccc8C(=O)c17)c9ccccc9,water,298,-4.522223117,mol/L
Brc1ccc2c3cc4ccc5C(=O)c6ccccc6c7cc8ccc(C(=O)c2c1Br)c3c8c4c57,water,298,-4.450427718,mol/L
COc1ccc(cc1)C(CN(C)C)C2(O)CCCCC2,water,298,0.290880305,mol/L
COc1ccc(cc1)C(CN(C)C)C2(O)CCCCC2,water,298,0.289274779,mol/L
COc1ccc(cc1)C(CN(C)C)C2(O)CCCCC2,water,298,0.256718745,mol/L
COc1ccc(cc1)C(CN(C)C)C2(O)CCCCC2,water,298,-1.10866523,mol/L