Solute,Solvent,Temperature_K,Solubility,Units
OC(=O)c1ccccc1,water,298,-1.619929844,mol/L
O=C1N[S](=O)(=O)c2ccccc12,water,298,-1.800499023,mol/L
OC1=CC(=O)NC=N1,water,298,-1.587161122,mol/L
S=C=S,water,298,-1.419243393,mol/L
O=COCc1ccccc1,water,298,-1.673119803,mol/L
CCCCOCC,water,298,-1.54996066,mol/L
COc1cccc(c1)C(C)=O,water,298,-1.724816989,mol/L
Nc1ccc(Cl)cc1,water,298,-1.657055853,mol/L
CCOC(=O)C(=N/Nc1ccc(cc1)[N+]([O-])=O)/C(=O)C2=NN3C(=NC(=O)c4ccccc34)S2,water,298,-2.2216331,mol/L
CCCCOCCOCCOCCCC,water,298,-1.891969307,mol/L
Cc1ccccc1N=C(N)N=C(N)N,water,298,-1.842241499,mol/L
[Ca++].[O-][S]([O-])(=O)=O,water,298,-1.694656243,mol/L
CC1=NN(C(=O)C1)c2ccccc2,water,298,-1.808086339,mol/L
NN=C(N)N.OC(O)=O,water,298,-1.702529461,mol/L
CC(C)(O)C1CCC(C)(O1)C=C,water,298,-1.799728458,mol/L
CC(=O)CC(=O)Nc1ccccc1C,water,298,-1.850192261,mol/L
CC(C)C(NC(N)=O)NC(N)=O,water,298,-1.809694359,mol/L
FC(F)CCl,water,298,-0.922963209,mol/L
CC(C)(O)c1cccc(c1)C(C)(C)O,water,298,-1.863533046,mol/L
CCc1cccc(C)c1N,water,298,-1.706127176,mol/L
OC(=O)CC1(CCCCC1)CC(O)=O,water,298,-1.879933896,mol/L
[Ca++].[O-][S]([O-])(=O)=O,water,298,-1.715687645,mol/L
NC(N)=N[N+]([O-])=O,water,298,-1.602348034,mol/L
COc1ccc(NC(=O)CC(C)=O)cc1,water,298,-1.901477183,mol/L
CC1OCC(O1)c2ccccc2,water,298,-1.805450609,mol/L
CCCC1CC(=CC(=O)C1)C,water,298,-1.772587094,mol/L
CC(=O)Oc1ccc(cc1)C#N,water,298,-1.799017293,mol/L
CCCCC(CC)CN,water,298,-1.71174675,mol/L
OC(=O)CC[C@H](N1C(=O)c2ccccc2C1=O)C(O)=O,water,298,-1.446331686,mol/L
CC(C)C1CCC(=CC1)C.CC(C)C2CCC(=CC2)C,water,298,-5.495255436,mol/L
ClC(Cl)=C,water,298,-1.588580927,mol/L
[O--].[O--].[O--].[Gd+3].[Gd+3],water,298,-2.161364408,mol/L
OCCCCCCC=C,water,298,-1.712071006,mol/L
CC(C)[C@H]1CCC(=CC1=O)C,water,298,-1.78824369,mol/L
CC1(C)S[C@@H]2[C@H](N)C(=O)N2[C@H]1C(O)=O,water,298,-1.944045108,mol/L
ClC\C=C/Cl,water,298,-1.656043415,mol/L
[B+3].[Cl-].[Cl-].[Cl-].CCCCCCCCN(C)C,water,298,-5.465370193,mol/L
Sc1ccccc1Cl,water,298,-1.780035133,mol/L
OCC(CO)(CO)COCC(CO)(CO)CO,water,298,-2.025099253,mol/L
Nc1nccnc1C(O)=O,water,298,-1.763159597,mol/L
CN(C)Cc1ccccc1Cl,water,298,-1.849355422,mol/L
[Ca++].CCO[P]([O-])(=O)Cc1cc(c(O)c(c1)C(C)(C)C)C(C)(C)C.CCO[P]([O-])(=O)Cc2cc(c(O)c(c2)C(C)(C)C)C(C)(C)C,water,298,-2.46167357,mol/L
[Ca++].[O-][S]([O-])(=O)=O,water,298,-1.753777695,mol/L
CCOC(C)(C)C,water,298,-1.634604801,mol/L
C=CCOC(=O)OCCOCCOC(=O)OCC=C,water,298,-2.06526472,mol/L
OCCCCCCC=C,water,298,-1.744232864,mol/L
OCCCCCCC=C,water,298,-1.745946728,mol/L
Cl[S](=O)(=O)c1ccccc1,water,298,-1.88532188,mol/L
CC(C)C1CCC(C)CC1OCC(O)CO,water,298,-2.006358589,mol/L
COc1ccc(C=O)cc1O,water,298,-1.826243245,mol/L
Cc1ccc(C=O)cc1,water,298,-1.723701533,mol/L
Nc1ccc(O)cc1[N+]([O-])=O,water,298,-1.833764651,mol/L
CC(C)c1ccc(N)cc1,water,298,-1.788586132,mol/L
Oc1ccccc1[N+]([O-])=O,water,298,-1.802914236,mol/L
CC1CC(=CC(C)C1C=O)C,water,298,-1.844063724,mol/L
CCCCC[C@H]1CCC(=O)O1,water,298,-1.85529404,mol/L
S=C=S,water,298,-1.54718764,mol/L
CC(=O)COc1c(C)cccc1C,water,298,-1.918544784,mol/L
COc1ccc(OC)c(N)c1,water,298,-1.858869039,mol/L
CC(=C)C(=O)OCC=C,water,298,-1.774568607,mol/L
Oc1ccccc1[N+]([O-])=O,water,298,-1.821139056,mol/L
CC(=O)CC(=O)Nc1ccc(C)cc1C,water,298,-1.990078682,mol/L
COc1ccc(C)cc1NC(C)=O,water,298,-1.931164755,mol/L
[O--].[O--].[O--].[Gd+3].[Gd+3],water,298,-2.237085122,mol/L
Nc1cc(Cl)c(Cl)cc1[S](O)(=O)=O,water,298,-2.065900958,mol/L
CC1=NN(C(=O)C1)c2ccccc2,water,298,-1.925085284,mol/L
CCCCCCC=O,water,298,-1.750124429,mol/L
CC1CC(CCC1N)CC2CCC(N)C(C)C2,water,298,-2.074144805,mol/L
CC(C)(C)OC(=O)C=C,water,298,-1.804593715,mol/L
COc1ccc(CO)cc1,water,298,-1.839371189,mol/L
CC(O)C(=O)N(C)C,water,298,1.630235126,mol/L
[NH4+].OCC([O-])=O,water,298,1.700915909,mol/L
OC(=O)c1cccc2cccc(c3cccc4cccc(C(O)=O)c34)c12,water,298,-2.233440337,mol/L
CC(C)COC(=O)C=C,water,298,-1.806759777,mol/L
CC(CC=O)c1ccccc1,water,298,-1.86983286,mol/L
Cc1cc(O)ccc1N,water,298,-1.789422053,mol/L
COc1ccc(C=O)cc1,water,298,-1.83298765,mol/L
OC1=CC(=O)NC=N1,water,298,-1.748529124,mol/L
CCCCOC(=O)C=C,water,298,-1.806759777,mol/L
COC(=O)C(=O)c1ccccc1,water,298,-1.914237348,mol/L
CC(C)(C)OC(=O)C=C,water,298,-1.806759777,mol/L
[Na+].[Na+].[O-]C(=O)CCCCCCCCC([O-])=O,water,298,-0.092896364,mol/L
COCC(C)OC(C)=O,water,298,0.175568446,mol/L
[Na+].[Na+].Nc1ccc2c([O-])c(N=Nc3ccc(cc3)N=Nc4ccc(cc4)[S]([O-])(=O)=O)c(cc2c1)[S](O)(=O)=O,water,298,-0.460354084,mol/L
[Cl].COc1cc(CN)ccc1O,water,298,0.018846252,mol/L
[Na+].[Na+].CC1=NN(C(=O)C1N=Nc2cc(NC(=O)C(Br)=C)ccc2[S]([O-])(=O)=O)c3cc(Cl)c(cc3Cl)[S]([O-])(=O)=O,water,298,-0.550169975,mol/L
[Na+].[Na+].[Na+].[Na+].[Na+].[Na+].[O-][S](=O)(=O)c1ccc(Nc2nc(Cl)nc(NCCNc3ccc4N=C5C(=C6Oc7c(ccc(NCCNc8nc(Cl)nc(Nc9ccc(cc9[S]([O-])(=O)=O)[S]([O-])(=O)=O)n8)c7[S]([O-])(=O)=O)N=C6C(=C5Oc4c3[S]([O-])(=O)=O)Cl)Cl)n2)c(c1)[S]([O-])(=O)=O,water,298,-0.879554019,mol/L
O=C1CCC(=O)N1,water,298,0.296230626,mol/L
[Na+].CCCCCCCCCCCCO[S]([O-])(=O)=O,water,298,-0.167716596,mol/L
CC(O)CN.OC(=O)CC(O)(CC(O)=O)C(O)=O,water,298,0.862920127,mol/L
Cc1c(O)cccc1O,water,298,0.192772727,mol/L
CC(C)(O)C=C,water,298,0.351057238,mol/L
[Li+].[Li+].[O-]C(=O)CCCCC([O-])=O,water,298,0.084622153,mol/L
[Li+].[Li+].[O-]C(=O)CCCCCCCCC([O-])=O,water,298,-0.047347893,mol/L
[Li+].[Li+].[O-]C(=O)CCCCCCCC([O-])=O,water,298,-0.017921985,mol/L
Nc1ccc2C(=O)C(=N/Nc3ccc(cc3)N=Nc4ccc(cc4)[S](O)(=O)=O)\C(=Cc2c1)[S](O)(=O)=O.OCCN(CCO)CCO.OCCN(CCO)CCO,water,298,-0.635904616,mol/L
CC(C)(O)C=C,water,298,0.343578985,mol/L
Cc1ccc(O)cc1,water,298,-0.743951754,mol/L
CC\C=C/CCO,water,298,-0.715141343,mol/L
[Na+].[Na+].Oc1c2ccc(Nc3nc(Cl)nc(Cl)n3)cc2cc(c1N=Nc4ccc(cc4)[S](=O)(=O)CCO[S]([O-])(=O)=O)[S]([O-])(=O)=O,water,298,-1.578382357,mol/L
COC(=O)C(C)=C,water,298,-0.721297315,mol/L
CCOC(=O)CC,water,298,-0.730412488,mol/L
Oc1ccccc1C#N,water,298,-0.797242021,mol/L
CCN(CC)CCCNc1nc(NCCCN(CC)CC)nc(Nc2ccc3c(O)c(N=Nc4ccc5NC(=O)Nc5c4)c(cc3c2)[S](O)(=O)=O)n1.CC(O)C(O)=O,water,298,-0.64043406,mol/L
[Sn++].[O-][S]([O-])(=O)=O,water,298,-0.057823856,mol/L
COc1cc(Nc2c(cnc3cc(OCCCN4CCN(C)CC4)c(OC)cc23)C#N)c(Cl)cc1Cl,water,298,-4.879551326,mol/L
COc1cc(Nc2c(cnc3cc(OCCCN4CCN(C)CC4)c(OC)cc23)C#N)c(Cl)cc1Cl,water,298,-5.247528111,mol/L
C/C=N/O,water,298,0.495819462,mol/L
[Li+].[Br-],water,298,1.32370627,mol/L
CCC(OCCCOC)OC(C)=O,water,298,-0.016848465,mol/L
NC(N)=N.SC#N,water,298,1.185189716,mol/L
[Na+].[Na+].[O-][S](=O)[S]([O-])=O,water,298,0.018292129,mol/L
CC(C)CCCCCCO,water,298,0.099497376,mol/L
C\C=C/C=O,water,298,0.412016319,mol/L
OCC1OC2OC3C(O)C(O)C(OC3CO)OC4C(O)C(O)C(OC4CO)OC5C(O)C(O)C(OC5CO)OC6C(O)C(O)C(OC6CO)OC7C(O)C(O)C(OC7CO)OC8C(O)C(O)C(OC8CO)OC9C(O)C(O)C(OC9CO)OC1C(O)C2O,water,298,-0.857469121,mol/L
CC1OC1C,water,298,0.397295078,mol/L
[Na+].CCCCCCCCCO[S]([O-])(=O)=O,water,298,-0.13619896,mol/L
[Cl-].CCNc1cc2[o+]c3cc(NCC)c(C)cc3c(c2cc1C)c4ccccc4C(=O)OC,water,298,-1.390984611,mol/L
CC(C)CC=O,water,298,-0.658712812,mol/L
CCOc1ccc(N)cc1,water,298,-0.860835326,mol/L
CCCOC(C)=O,water,298,-0.732704285,mol/L
Clc1ccccc1C(=O)CC#N,water,298,-2.175139595,mol/L
CCCOC(C)=O,water,298,-0.737324482,mol/L
[Ca++].O[C@H]([C@@H](O)C(O)=O)C(O)=O,water,298,-1.00961536,mol/L
CC(=O)CC(=O)OCCOC(=O)C(C)=C,water,298,-1.063682205,mol/L
O=C1OCc2ccccc12,water,298,-0.862721053,mol/L
CC1=NN(C(=N)C1)c2cccc(c2)[S](O)(=O)=O,water,298,-1.138788219,mol/L
O=C1CCN(CC1)Cc2ccccc2,water,298,-1.016982858,mol/L
CCCCC=O,water,298,-0.675103228,mol/L
ON=C1CCCCC1,water,298,-0.798420434,mol/L
CCCCO[P](O)(=O)OCCCC,water,298,-1.067380867,mol/L
COC(=O)\C=C(/C)N,water,298,-0.805923544,mol/L
F.[Na].[MgH2].O=[Si]=O,water,298,-0.856665127,mol/L
CCCCC=O,water,298,-0.679902111,mol/L
Nc1ccc(cc1)N(CCO)CCO.O[S](O)(=O)=O,water,298,-0.218413053,mol/L
[NH4+].[NH4+].[Zn++].[Zn++].[O-]C([O-])=O.[O-]C([O-])=O.[O-]C([O-])=O,water,298,-0.289761762,mol/L
[Na+].[Na+].[SH-],water,298,0.352490659,mol/L
[Ni++].CC([O-])=O.CC([O-])=O,water,298,0.00053768,mol/L
OC(C(F)(F)F)C(F)(F)F,water,298,0.020110333,mol/L
[Na+].[Na+].Nc1c2C(=O)c3ccccc3C(=O)c2c(Nc4ccc(cc4)[S](=O)(=O)CCO[S]([O-])(=O)=O)cc1[S]([O-])(=O)=O,water,298,-0.551445839,mol/L
CC1COC(=O)O1,water,298,0.234059099,mol/L
[Na+].[Na+].[Na+].OC(=O)C1=CC(CC=C1O)(Nc2nc(NC3(CC=C(O)C(=C3)C(O)=O)[S]([O-])(=O)=O)nc(NC4(CC=C(O)C(=C4)C(O)=O)[S]([O-])(=O)=O)n2)[S]([O-])(=O)=O,water,298,-0.689646011,mol/L
C1OCOCO1,water,298,0.280909712,mol/L
[Ca++].[O-]C=O.[O-]C=O,water,298,0.121211094,mol/L
CC(=O)OCCOC(C)=O,water,298,0.068474963,mol/L
[Na+].[Na+].Nc1c2C(=O)c3ccccc3C(=O)c2c(Nc4ccc(cc4)[S](=O)(=O)CCO[S]([O-])(=O)=O)cc1[S]([O-])(=O)=O,water,298,-0.563962397,mol/L
C1CCCNCC1,water,298,0.234037954,mol/L
[Ca++].[O-]C=O.[O-]C=O,water,298,0.116131569,mol/L
[O--].[O--].[O--].[As+3].[As+3],water,298,-1.045896296,mol/L
[Na+].[Na+].[O-][S](=O)(=O)c1ccccc1\C=C/c2ccc(cc2)c3ccc(cc3)\C=C/c4ccccc4[S]([O-])(=O)=O,water,298,-1.504668533,mol/L
ClC(Cl)(Cl)C(=O)C(Cl)(Cl)Cl,water,298,-1.17979792,mol/L
OCCc1ccccc1,water,298,-0.843915861,mol/L
CCCCO[P](O)(=O)OCCCC,water,298,-1.087251192,mol/L
COC=C,water,298,-0.531030497,mol/L
CCOCCOC(=O)C(C)=C,water,298,-0.96747386,mol/L
Nc1ccccc1O,water,298,-0.807487275,mol/L
Nc1cccc(c1)[S](O)(=O)=O,water,298,-1.008081414,mol/L
Cc1cccc(N)c1,water,298,-0.799567572,mol/L
CCOC(=O)C(Cl)C(C)=O,water,298,-0.985949247,mol/L
[Zr],water,298,0.267777593,mol/L
[Na+].[Na+].[Na+].CCN1C(=O)C(=N/Nc2cc(Nc3nc(Cl)nc(Nc4ccc(c(Nc5nc(N)nc(Cl)n5)c4)[S]([O-])(=O)=O)n3)c(cc2[S]([O-])(=O)=O)[S]([O-])(=O)=O)\C(=C(C(N)=O)C1=O)C,water,298,-0.759001213,mol/L
ClCBr,water,298,2.110835898,mol/L
CC(N)C(O)=O,water,298,0.27156578,mol/L
CCN(CC)CC(C)O,water,298,0.102111364,mol/L
[Na+].[Na+].Nc1c2C(=O)c3ccccc3C(=O)c2c(Nc4ccc(cc4)[S](=O)(=O)CCO[S]([O-])(=O)=O)cc1[S]([O-])(=O)=O,water,298,-0.576850419,mol/L
CC(=O)CC(C)=O,water,298,0.219600261,mol/L
[Na+].[Na+].[Na+].[Na+].OO.OO.OO.[O-]C([O-])=O.[O-]C([O-])=O,water,298,-0.276846455,mol/L
CC(=O)OCCOC(C)=O,water,298,0.050068802,mol/L
CC(N)=S,water,298,0.336339534,mol/L
COCC(C)OC(C)=O,water,298,0.083023239,mol/L
[NH4+].[Na+].COc1cc(c(C)cc1NC(=O)C(N=Nc2ccc(cc2)c3sc4c(ccc(C)c4[S]([O-])(=O)=O)n3)C(C)=O)[S]([O-])(=O)=O,water,298,-0.623062478,mol/L
CCCCOCCOCCOCOCCOCCOCCCC,water,298,-1.301635776,mol/L
CC1OC(=O)C(C)OC1=O,water,298,-0.936025863,mol/L
ClCBr,water,298,-0.889164102,mol/L
NC(=O)c1ccccc1N,water,298,-0.913922317,mol/L
Cc1ccccc1N,water,298,-0.809908406,mol/L
OC(=O)Cc1ccccc1,water,298,-0.913909558,mol/L
CCOC(=O)C(Cl)C(C)=O,water,298,-0.998914224,mol/L
CC\C=C/CCO,water,298,-0.785854804,mol/L
Cc1ccccc1N,water,298,-0.817030309,mol/L
Cc1ccccc1N,water,298,-0.820501479,mol/L
CC(C)C(N1CCCNC1=O)C(O)=O,water,298,-1.092111917,mol/L
COC1CCC=CO1,water,298,-0.853333105,mol/L
CN1COCN=C1N[N+]([O-])=O,water,298,-1.000360857,mol/L
[H+].[Cl-].Cc1ncc(CO)c(CO)c1O,water,298,-0.111712583,mol/L
[K+].[K+].[K+].OC(CC([O-])=O)(CC([O-])=O)C([O-])=O,water,298,0.701241882,mol/L
[Na+].[Na+].[Na+].[Na+].OO.OO.OO.[O-]C([O-])=O.[O-]C([O-])=O,water,298,-0.309433822,mol/L
CCCCCCCCCc1ccc(OCCOCCO)cc1,water,298,-0.304510239,mol/L
NC(N)=N.SC#N,water,298,1.106488088,mol/L
[Na+].CCCCCCCCCCCCO[S]([O-])(=O)=O,water,298,-0.283881408,mol/L
CC(C)C(N1CCCNC1=O)C(O)=O,water,298,-1.102861926,mol/L
CC(=O)OC(C=C)C#N,water,298,-0.898693945,mol/L
CN(CC(O)=O)C(N)=N,water,298,-0.919061534,mol/L
CC(C)C(N1CCCNC1=O)C(O)=O,water,298,-1.107281983,mol/L
CC1CCCCC1O,water,298,-0.864495868,mol/L
CC(C)C(N1CCCNC1=O)C(O)=O,water,298,-1.11320872,mol/L
CS,water,298,-0.494714636,mol/L
CC(C)C(N1CCCNC1=O)C(O)=O,water,298,-1.114674885,mol/L
COC(=O)C(C)=C,water,298,-0.815816397,mol/L
CC(O)COc1ccccc1,water,298,-1.003417731,mol/L
CN(CC(O)=O)C(N)=N,water,298,-0.938741673,mol/L
Cc1ccccc1N,water,298,-0.853925235,mol/L
CCCCC(CC)COCCCN,water,298,-1.096509119,mol/L
Nc1cccc(c1)[S](O)(=O)=O,water,298,-1.062439076,mol/L
CC(C)CC=O,water,298,-0.759083357,mol/L
CCOC(=O)C=C,water,298,-0.824416569,mol/L
OC(=O)CCCCC(O)=O,water,298,-0.988683788,mol/L
[Cl-].N[C@@H](Cc1[nH]cnc1)C(O)=O.[H+],water,298,-0.107649886,mol/L
NC(CCCN=C(N)N)C(O)=O,water,298,-0.068747154,mol/L
[Na+].[Na+].[Na+].[Na+].[Na+].[O-][P]([O-])(=O)O[P]([O-])(=O)O[P]([O-])([O-])=O,water,298,-0.395423212,mol/L
OC(C(O)C(O)=O)C(O)=O,water,298,0.990977152,mol/L
[K+].O[C@H]([C@@H](O)C([O-])=O)C(O)=O,water,298,0.892753102,mol/L
[Na+].[K+].O[C@H]([C@@H](O)C([O-])=O)C([O-])=O,water,298,0.844771408,mol/L
[Na+].O[C@H](C[O-])[C@H]1OC(=C(O)C1=O)O,water,298,-0.132544773,mol/L
COCCOC(=O)C=C,water,298,0.043941678,mol/L
[H+].[Cl-].NNc1ccc(cc1)[S](N)(=O)=O,water,298,-0.19127437,mol/L
CN(C)C(N)=O,water,298,0.212431567,mol/L
[K+].[Au+].[C-]#N.[C-]#N,water,298,-0.304208728,mol/L
[Na+].[Na+].[Na+].[Na+].[Na+].[Na+].[Na+].[Na+].[Na+].[Na+].[O-][S](=O)(=O)c1ccc(cc1)N=Nc2ccc(cc2)N=Nc3ccc(\C=C\c4ccc(cc4[S]([O-])(=O)=O)N=Nc5ccc(cc5)N=Nc6ccc(cc6)[S]([O-])(=O)=O)c(c3)[S]([O-])(=O)=O.[O-][S](=O)(=O)c7ccc(cc7)N=Nc8ccc(cc8)N=Nc9ccc(/C=C/c%10ccc(cc%10[S]([O-])(=O)=O)N=Nc%11ccc(\C=C\c%12ccc(cc%12[S]([O-])(=O)=O)N=Nc%13ccc(cc%13)N=Nc%14ccc(cc%14)[S]([O-])(=O)=O)c(c%11)[S]([O-])(=O)=O)c(c9)[S]([O-])(=O)=O,water,298,-1.231545685,mol/L
NC(N)=S,water,298,0.270766744,mol/L
Oc1cccc(O)c1,water,298,1.107384462,mol/L
OC(C(O)=O)c1ccccc1,water,298,-0.032126941,mol/L
OC(C(O)=O)c1ccccc1,water,298,-0.034716438,mol/L
C=CCOCC1CO1,water,298,0.088674948,mol/L
CC1(C)NC(=O)NC1=O,water,298,0.03847382,mol/L
[K+].[Au+].[C-]#N.[C-]#N,water,298,-0.31341673,mol/L
[Na+].[Na+].[Na+].[Na+].OCCNc1nc(Nc2cccc(c2)[S](O)(=O)=O)nc(Nc3ccc(\C=C\c4ccc(Nc5nc(NCCO)nc(Nc6cccc(c6)[S](O)(=O)=O)n5)cc4[S](O)(=O)=O)c(c3)[S](O)(=O)=O)n1,water,298,-0.887690427,mol/L
[Na+].[Na+].[Na+].[Na+].OO.OO.OO.[O-]C([O-])=O.[O-]C([O-])=O,water,298,-0.350826508,mol/L
[Ca++].CCCCCCCCC([O-])=O.CCCCCCCCC([O-])=O,water,298,-1.376483872,mol/L
O[P](O)(=O)c1ccccc1,water,298,-1.026923058,mol/L
CCOC(=O)\C=C/C(=O)OCC,water,298,-1.06748522,mol/L
CC1=CC(=O)CC(C)(C)C1,water,298,-0.979171465,mol/L
[Na+].[Na+].CC1=NN(C(=O)C1N=Nc2ccccc2C([O-])=O)c3ccc(cc3)[S]([O-])(=O)=O,water,298,-1.491314993,mol/L
OC(=O)CCCCC(O)=O,water,298,-1.006412554,mol/L
OCC1OC2OC3C(O)C(O)C(OC3CO)OC4C(O)C(O)C(OC4CO)OC5C(O)C(O)C(OC5CO)OC6C(O)C(O)C(OC6CO)OC7C(O)C(O)C(OC7CO)OC8C(O)C(O)C(OC8CO)OC1C(O)C2O,water,298,-1.89965485,mol/L
[K+].O[B-](O)(F)F,water,298,-0.930738917,mol/L
[Na+].[O-][S](=O)(=O)c1ccc(Nc2nc(Cl)nc(Cl)n2)cc1,water,298,-1.38103092,mol/L
CCCCCCCCCc1ccccc1O.CC2CO2.OCCNCCO.C=O,water,298,-1.463069491,mol/L
CI,water,298,-0.999813397,mol/L
[Cl-].CCN(CC)c1ccc2C=C(C(=O)Oc2c1)c3n(C)c4ccccc4[n+]3C,water,298,-1.450561375,mol/L
Oc1ccc(cc1O)C#N,water,298,-0.981506952,mol/L
CC(C)CC(C)=O,water,298,-0.851479539,mol/L
COc1ccccc1N,water,298,-0.944324013,mol/L
[K+].O[B-](O)(F)F,water,298,-0.939946918,mol/L
C=COCCOCCOC=C,water,298,-1.053070208,mol/L
OC(C(O)C(O)=O)C(O)=O,water,298,0.966674617,mol/L
[K+].O[C@H]([C@@H](O)C([O-])=O)C(O)=O,water,298,0.868450568,mol/L
[Na+].[K+].O[C@H]([C@@H](O)C([O-])=O)C([O-])=O,water,298,0.820468874,mol/L
[Na+].[Na+].[Na+].CN(c1ccc2c(c1)C=C(/C(=N/Nc3ccccc3[S]([O-])(=O)=O)C2=O)[S]([O-])(=O)=O)c4nc(Cl)nc(Nc5cccc(c5)[S]([O-])(=O)=O)n4,water,298,-0.752029987,mol/L
OC(C(O)=O)c1ccccc1,water,298,-0.039254302,mol/L
O.O.O.O.O.O.[Co++].[O-][N+]([O-])=O.[O-][N](=O)=O,water,298,0.675309966,mol/L
[Cu++].[O-][N+]([O-])=O.[O-][N+]([O-])=O,water,298,0.866122887,mol/L
[Na+].OC(=O)CC(O)(CC(O)=O)C([O-])=O,water,298,-0.200293041,mol/L
OC(C(O)=O)c1ccccc1,water,298,-0.053546818,mol/L
COC(=O)CCC(=O)OC,water,298,-0.037670248,mol/L
NC(N)=S,water,298,0.245258976,mol/L
COCc1oc(C=O)cc1,water,298,-0.022704274,mol/L
[nH]1cccn1,water,298,1.28788965,mol/L
CCN(CC[N+](C)(C)CC(C)O)c1ccc(cc1)N=Nc2ccc(cc2Cl)[N+]([O-])=O.CC([O-])=O,water,298,-0.573145985,mol/L
[Cl-].CCN(CC[N+](C)(C)CC(C)O)c1ccc(cc1)N=Nc2ccc(cc2Cl)[N+]([O-])=O,water,298,-0.551894305,mol/L
[Cu++].[O-]C(=O)C1CCC(=O)N1.[O-]C(=O)C2CCC(=O)N2,water,298,-0.384250204,mol/L
[Na+].[Na+].COc1cc(ccc1NC(=O)Nc2ccc(cc2OC)N=Nc3cccc(c3)[S]([O-])(=O)=O)N=Nc4cccc(c4)[S]([O-])(=O)=O,water,298,-0.714875651,mol/L
[Y+3].[O-][N+]([O-])=O.[O-][N+]([O-])=O.[O-][N+]([O-])=O,water,298,0.678730659,mol/L
OC(=O)C(Cl)(Cl)Cl,water,298,0.900725854,mol/L
CCOC(=O)CC(C)=O,water,298,0.000523602,mol/L
CC(CO)OC(=O)C(C)=C,water,298,-0.044931546,mol/L
Cc1ccc2OCC(=O)COc2c1,water,298,-1.114155449,mol/L
CCOC(=O)c1ccnc(c1)C(=O)OCC,water,298,-1.2184149,mol/L
O[P](O)(=O)c1ccccc1,water,298,-1.069383867,mol/L
[Na+].[Na+].[K].[K].OCCN(CCO)c1nc(Nc2ccccc2)nc(Nc3ccc(\C=C\c4ccc(Nc5nc(Nc6ccccc6)nc(n5)N(CCO)CCO)cc4[S]([O-])(=O)=O)c(c3)[S]([O-])(=O)=O)n1,water,298,-1.887960137,mol/L
CC(C)(O)C(=O)c1ccccc1,water,298,-1.091532091,mol/L
CC1=CCC2C(C1)C(=O)OC2=O,water,298,-1.09999437,mol/L
CCCCC(CC)CO.O[P](O)(O)=O,water,298,-1.237789285,mol/L
CCN(C(C)C)C(C)C,water,298,-0.993155745,mol/L
OCCOc1ccc(OCCO)cc1,water,298,-1.179871794,mol/L
Cc1cccc(C)c1N,water,298,-0.969498347,mol/L
CCC(C)C=O,water,298,-0.821231264,mol/L
CC(C)CN(CC(C)C)C=O,water,298,-1.082666634,mol/L
CN1C(=C(NC=O)C(=O)N(C)C1=O)N,water,298,-1.183120855,mol/L
[Na+].[Na+].[Na+].CCN(c1ccccc1)c2nc(Cl)nc(Nc3cc(cc4C=C(\C(=N/Nc5ccc(C)cc5[S]([O-])(=O)=O)C(=O)c34)[S]([O-])(=O)=O)[S]([O-])(=O)=O)n2,water,298,-0.800434395,mol/L
C=CCOCC1CO1,water,298,0.049756882,mol/L
N#CCCC#N,water,298,0.199883328,mol/L
OC(C(O)C(O)=O)C(O)=O,water,298,0.92056983,mol/L
[K+].O[C@H]([C@@H](O)C([O-])=O)C(O)=O,water,298,0.82234578,mol/L
[Na+].[K+].O[C@H]([C@@H](O)C([O-])=O)C([O-])=O,water,298,0.774364086,mol/L
CC(=O)CC(C)=O,water,298,0.096402186,mol/L
[Na+].[Na+].[Na+].CCN(c1cccc(c1)[S](=O)(=O)CCO[S]([O-])(=O)=O)c2nc(Cl)nc(Nc3ccc4C(=O)C(=N/Nc5ccc(OC)cc5[S]([O-])(=O)=O)\C(=Cc4c3)[S]([O-])(=O)=O)n2,water,298,-0.8763361,mol/L
CCOC(=O)CC1(C)OCCO1,water,298,-0.144823593,mol/L
[Li+].[Li+].[Na+].[Na+].COc1cc(ccc1N\N=C/2C(=O)c3c(O)cc(cc3C=C2[S]([O-])(=O)=O)[S]([O-])(=O)=O)N(O)\N=C\4C=CC(=N\N=C\5C(=O)c6c(O)cc(cc6C=C5[S]([O-])(=O)=O)[S]([O-])(=O)=O)\C(=C4)OC,water,298,-0.909479678,mol/L
CN(C)Cc1ccccc1Cl,water,298,-0.136144978,mol/L
[K+].[O-][V](=O)=O,water,298,-0.046573827,mol/L
[La],water,298,0.947184106,mol/L
[Li+].[Li+].[Na+].[Na+].Nc1c(N=Nc2ccc(cc2)[S](=O)(=O)CCO[S]([O-])(=O)=O)c(cc3C=C(\C(=N/Nc4cc(Nc5nc(F)nc(F)c5Cl)ccc4[S]([O-])(=O)=O)C(=O)c13)[S]([O-])(=O)=O)[S]([O-])(=O)=O,water,298,-0.913801018,mol/L
[Na+].[Na+].[Na+].[Na+].[O-][S](=O)(=O)OCC[S](=O)(=O)c1ccc(N\N=C/2C(=O)c3c(Nc4nc(Cl)nc(Nc5cccc(c5)[S]([O-])(=O)=O)n4)cc(cc3C=C2[S]([O-])(=O)=O)[S]([O-])(=O)=O)cc1,water,298,-0.903187957,mol/L
COC(=O)CCC(=O)OC,water,298,-0.075223164,mol/L
[La],water,298,0.940064365,mol/L
[Na+].[O-]C(=O)C(Cl)(Cl)Cl,water,298,0.811144139,mol/L
O=C(OCC1CO1)C2CC=CCC2C(=O)OCC3CO3,water,298,-1.34010886,mol/L
[Ca++].CC(=O)[CH-]C(C)=O.CC(=O)[CH-]C(C)=O,water,298,-1.266527042,mol/L
[Na+].[Na+].[O-][S](=O)(=O)C1=CC(=O)C2=C(NNc3ccc(NC(=O)C(Br)=C)cc3[S]([O-])(=O)=O)C(=N)C=CC2=C1,water,298,-1.6785332,mol/L
Oc1ccc(cc1O)C#N,water,298,-1.023516095,mol/L
CC(=C)C(=O)OCCOCCOCCOCCOC(=O)C(C)=C,water,298,-1.41863926,mol/L
Nc1ccc(cc1)[S](O)(=O)=O,water,298,-1.141273025,mol/L
COC1CCCC1,water,298,-0.903788639,mol/L
Nc1ccc(cc1N)[S](O)(=O)=O,water,298,-1.181216395,mol/L
NC1CCC(CC1)CC2CCC(N)CC2,water,298,-1.233068373,mol/L
O=N\C=C/1NC=CC=C1,water,298,-1.000451858,mol/L
CCCC(C)C(O)=O,water,298,-0.978696773,mol/L
O=C1NC(=O)C2CC=CCC12,water,298,-1.093091418,mol/L
CC1=CC(=O)CC(C)(C)C1,water,298,-1.061358221,mol/L
Cc1cccc(N)c1,water,298,-0.950835248,mol/L
C[C@@H]1[C@@H](CN)C[C@H]2C[C@@H]1C2(C)C,water,298,-1.144304311,mol/L
CCN(CC)c1ccc(cc1)C(c2ccc(cc2)N(CC)CC)c3c4cc(ccc4ccc3[S](O)(=O)=O)[S](O)(=O)=O,water,298,-0.698476149,mol/L
CCC(C)(C)O,water,298,0.126659691,mol/L
[Rh+3].[O-][N+]([O-])=O.[O-][N+]([O-])=O.[O-][N+]([O-])=O,water,298,0.607411262,mol/L
COC(=O)CC#N,water,298,0.074751017,mol/L
NC(N)=S,water,298,0.188516266,mol/L
OCCN1C(=O)N(CCO)C(=O)N(CCO)C1=O,water,298,0.64366814,mol/L
COC(=O)OC,water,298,0.104944683,mol/L
[Li+].[Na+].[Na+].[O-][S](=O)(=O)c1cc(NC(=O)c2ccccc2)c3C(=O)C(=N/Nc4ccc5c(CNc6nc(F)nc(F)c6Cl)cccc5c4[S]([O-])(=O)=O)/C(=Cc3c1)[S]([O-])(=O)=O,water,298,-0.890086508,mol/L
[K+].OC([O-])=O,water,298,1.054501048,mol/L
Oc1cccc(O)c1,water,298,1.003488328,mol/L
[Cl-].CCCCCCCCCCCCCCCC[n+]1ccccc1,water,298,-0.486149552,mol/L