Solute,Solvent,Temperature_K,Solubility,Units
COC1=CC2=C(C(=O)C3(O2)C(OC)=CC(=O)CC3C)C(OC)=C1,water,298,-3.7,mol/L
CCCC1=CC(=O)N(CCC(=O)O)C=C1,water,298,-2.11,mol/L
O=C(O)CCCCCN1C=CC=CC1=O,water,298,-0.64,mol/L
CCOC1=C(CN(C1=O)C(C)C)[N+](=O)[O-],water,298,-4.33,mol/L
CCCCCCCC1=CC(=O)N(CCC(=O)O)C=C1,water,298,-4.4,mol/L
CCCCOC(=O)C1=C(C(=O)OCC(CC)CCCC)C=CC=C1,water,298,-7.22,mol/L
CC1CCC(C(C)C)C2=C1C=NC(NS(=O)(=O)C1=CC=C(N)C=C1)=N2,water,298,-4.18,mol/L
COC1=C2OC=CC2=C(CN)C2=C1OC(=O)C=C2,water,298,-0.9,mol/L
CC(NC(=O)CC1=CC=CC=C1)C1=CC=CC=C1,water,298,-3.19,mol/L
C1=CN=C2C=CC3=C(N=CC=C3)C2=C1,water,298,-2.68,mol/L
CCOC1=CC(=O)C2(OC3=C(C2=O)C(OC)=CC(OC)=C3Cl)C(C)C1,water,298,-4.6,mol/L
CCN(CC)CCCC(C)NC1=C2C=C(OC)C=CC2=NC2=C1C=CC(Cl)=C2,water,298,-2.64,mol/L
CCCOC1=CC(=O)C2(OC3=C(C2=O)C(OC)=CC(OC)=C3Cl)C(C)C1,water,298,-5.22,mol/L
CCCN1C=C(C(=O)O)C(=O)C2=C1C=C(N1CCNCC1)C(F)=C2,water,298,-3.57,mol/L
CC1=NC=C(CO)C(C=NC(C(=O)O)C(C)C)=C1O,water,298,-1.6,mol/L
CC1(C)SC2C(NC(=O)CC3=CC=CC=C3)C(=O)N2C1C(=O)O,water,298,-1.63,mol/L
NC(=S)NS(=O)(=O)C1=CC=C(N)C=C1,water,298,-2.24,mol/L
CCN(CC)CCOC(=O)C1=CC=C(N)C=C1,water,298,-1.26,mol/L
O=C1CC2OCC=C3CN4CCC56C7=C(C=CC=C7)N1C5C2C3CC46,water,298,-2.39,mol/L
CN(C)CCOC(C)(C1=CC=CC=C1)C1=CC=CC=N1,water,298,-2.82,mol/L
N=C(N)NS(=O)(=O)C1=CC=C(N)C=C1,water,298,-1.98,mol/L
NC1=CC=C(S(=O)(=O)NC2=CC=CC=N2)C=C1,water,298,-1.38,mol/L
NC1=CC=C(S(=O)(=O)NC2=NC=CS2)C=C1,water,298,-2.14,mol/L
NC1=CC=C(S(=O)(=O)NC2=NC=CC=N2)C=C1,water,298,-0.96,mol/L
CC1=CC=NC(NS(=O)(=O)C2=CC=C(N)C=C2)=N1,water,298,-2.63,mol/L
NS(=O)(=O)C1=CC=C(NC(=O)CCC(=O)O)C=C1,water,298,-2.03,mol/L
CCC1=C2C=CC=CC2=NC(CN)=C1C,water,298,-1.48,mol/L
CCCCCCCCSC(=N)N,water,298,0.16,mol/L
COC1=CC2=C(C=C1)N(C(=O)C1=CC=C(Cl)C=C1)C(C)=C2CC(=O)O,water,298,-4.77,mol/L
CC1=C(C(C(=C(N1)C)C(=O)OC)C2=CC=CC=C2[N+](=O)[O-])C(=O)OC,water,298,-4.54,mol/L
O=S(=O)(N1CCCC1)N1CCCC1,water,298,-0.44,mol/L
O=C(O)CC(O)CCC1=CCCC1=O,water,298,-0.4,mol/L
CCCCCCC(CO[N+](=O)O)O[N+](=O)O,water,298,-4.33,mol/L
CC1=CC=C(C(=O)C2=CSC(S(N)(=O)=O)=C2)C=C1,water,298,-4.45,mol/L
O=C1NC(=O)N(CC2=CC=C(Cl)C=C2)C=C1F,water,298,-3.49,mol/L
NS(=O)(=O)C1=CC(C(=O)C2=CC=C(O)C=C2)=CS1,water,298,-2.86,mol/L
COC1=CC=C(CN2C=C(F)C(=O)NC2=O)C=C1,water,298,-2.75,mol/L
COC1=CC=C(C(=O)C2=CSC(S(N)(=O)=O)=C2)C=C1,water,298,-4.47,mol/L
CC1=CC(=O)OC2=C1C=C(C)C1=C2C2=C(CCCC2)O1,water,298,-5.09,mol/L
CC12CCC(C3=C1N=C(NS(=O)(=O)C1=CC=C(N)C=C1)N=C3)C2(C)C,water,298,-4.08,mol/L
OCCOC1=CC=C(OCCO)C=C1,water,298,-1.23,mol/L
O=C(O)CN1CCCCS1(=O)=O,water,298,-0.59,mol/L
CC1=CC=C2CN(C(N)=NO)CC3CCCC1=C23,water,298,-1.2,mol/L
COC1=C2CCCC3CN(C(=N)N)CC(=C23)C=C1,water,298,-1.22,mol/L
NC(=NO)N1CC2=CC=CC3=C2C(CCC3)C1,water,298,-1.35,mol/L
CN(C)NC(=N)N1CC2=CC=CC3=CC=CC(=C32)C1,water,298,-1.07,mol/L
CC(C)=NNC(=N)N1CC2=CC=CC3=CC=CC(=C32)C1,water,298,-2.48,mol/L
NC(=NO)N1CC2=CC=CC3=C(Cl)C=CC(=C23)C1,water,298,-2.0,mol/L
COC1=C2CCCC3CN(C(N)=NO)CC(=C23)C=C1,water,298,-1.78,mol/L
COC1=CC2=C3C(=C1)C=CC=C3CN(C(N)=NO)C2,water,298,-1.21,mol/L
CCCCOC1=CC(=O)C2(OC3=C(C2=O)C(OC)=CC(OC)=C3Cl)C(C)C1,water,298,-5.4,mol/L
NC1=CC=C(N=C(N)N2CC3=CC=CC4=CC=CC(=C43)C2)C=C1,water,298,-1.83,mol/L
CN(C)CC1=C(O)C=CC(C(=O)C2=CSC(S(N)(=O)=O)=C2)=C1,water,298,-1.54,mol/L
CC(C)CNCC1=CC=C(C(=O)C2=CSC(S(N)(=O)=O)=C2)C=C1,water,298,-2.05,mol/L
C1=CC(=CC=C1C(=O)NN)[N+](=O)[O-],water,298,-2.16,mol/L
NS(=O)(=O)C1=CC(C(=O)C2=CC=C(CNCC3=CC=CC=C3)C=C2)=CS1,water,298,-3.37,mol/L
CN=C(NC)N1CC2=CC=CC3=CC=CC(=C32)C1,water,298,-1.15,mol/L
O=C1NC(=O)N(C2CCCO2)C=C1F,water,298,-1.01,mol/L
CCOC1=CC(=O)CC(C)C12OC1=C(C2=O)C(OC)=CC(OC)=C1Cl,water,298,-5.0,mol/L
O=C1NCCCC1N1C(=O)C2=C(C=CC=C2)S1(=O)=O,water,298,-2.64,mol/L
O=C(O)C=CC1=CC2=C(C=C1)OCO2,water,298,-3.19,mol/L
CCCCCCOC1=CC(O)=C(C(C)=NO)C=C1,water,298,-4.15,mol/L
C1=CC=C2C(=C1)NC(=N2)C3=CC=C(O3)[N+](=O)[O-],water,298,-3.89,mol/L
CCCCCCCCCCOC1=CC(O)=C(C(C)=NO)C=C1,water,298,-4.89,mol/L
CCCCCCCCCCOC1=CC(O)=C(C(CC)=NO)C=C1,water,298,-4.06,mol/L
CCCCCCOC1=CC(O)=C(C(=NO)C2=CC=CC=C2)C=C1,water,298,-3.47,mol/L
CCOC1=CC(=O)CC(C)C12OC1=C(C2=O)C(OC)=CC(OCC)=C1Cl,water,298,-4.7,mol/L
CCCOC1=CC(=O)CC(C)C12OC1=C(C2=O)C(OC)=CC(OC)=C1Cl,water,298,-4.52,mol/L
O=C1NC(NC2=CC=CC=C2)=NC2=C1N=CN2,water,298,-4.12,mol/L
CC1=CC=C(OCC(=O)NC2C(=O)N3C2SC(C)(C)C3C(=O)O)C=C1,water,298,-3.15,mol/L
CNC1=NC2=C(C=C(C=C2)Cl)C(=[N+](C1)O)C3=CC=CC=C3,water,298,-3.39,mol/L
CCC(C)CN(C)N=NC1=CC=C(C(=O)O)C=C1,water,298,-1.79,mol/L
NS(=O)(=O)C1=NC2=C(C=C(O)C=C2)S1,water,298,-2.5,mol/L
O=C(C1=CC(F)=CC=C1)N(O)C1=CC=CC=C1,water,298,-2.6,mol/L
O=C(NO)C1=C(N=CC2=CC=CC=N2)C=CC=C1,water,298,-3.21,mol/L
CC1=C(N(O)C(=O)C2=CC(F)=CC=C2)C=CC=C1,water,298,-2.53,mol/L
CC1=CC=CC(N(O)C(=O)CCC2=CC=CC=C2)=C1,water,298,-3.41,mol/L
CC1=C(N(O)C(=O)CCC2=CC=CC=C2)C=CC=C1,water,298,-2.79,mol/L
CCCCOC1=CC(=O)CC(C)C12OC1=C(C2=O)C(OC)=CC(OC)=C1Cl,water,298,-4.7,mol/L
CCCCCCCC(=O)OC1C(O)C(O)OC(CO)C1O,water,298,-2.63,mol/L
O=S1(=O)OC2(C3=C(C=CC(O)=C3)OC3=C2C=C(O)C=C3)C2=C1C=CC=C2,water,298,-3.5,mol/L
COC1=CC(OC)=CC(C(=O)N(O)C2=CC=CC=C2)=C1,water,298,-3.1,mol/L
CC1=CC=CC(N(O)C(=O)C2=C(Cl)C=C(Cl)C=C2)=C1,water,298,-4.47,mol/L
CC1=C(N(O)C(=O)C2=C(Cl)C=C(Cl)C=C2)C=CC=C1,water,298,-4.17,mol/L
COC1=CC(OC)=CC(C(=O)N(O)C2=C(C)C=CC=C2)=C1,water,298,-3.65,mol/L
COC1=CC(OC)=CC(C(=O)N(O)C2=CC(C)=CC=C2)=C1,water,298,-3.61,mol/L
CN1C2CCC1CC(OC(=O)C(COS(=O)(=O)O)C1=CC=CC=C1)C2,water,298,-1.57,mol/L
N=C(N)NN=CC1=C2C=CC=CC2=CC=C1O,water,298,-2.46,mol/L
OC(CCN1CCCCC1)(C1=CC=CC=C1)C1CCCCC1,water,298,-1.82,mol/L
CCN1C=C(C(=O)O)C(=O)C2=C1C=C(N1CCNCC1)C(F)=C2,water,298,-2.96,mol/L
CC(=O)NC1=CC=C(OP(O)(=O)O)C=C1,water,298,0.13,mol/L
CN(O)C(=O)C1CCCCCC1,water,298,-1.45,mol/L
O=C(C1CC1)N(O)C1CCCCC1,water,298,-2.04,mol/L
O=C(C1CCC1)N(O)C1CCCCC1,water,298,-2.7,mol/L
O=C(C1CCCC1)N(O)C1CCCCC1,water,298,-3.16,mol/L
CCN(C)N=NC1=CC=C(C(=O)O)C=C1,water,298,-0.42,mol/L
CCCN(C)N=NC1=CC=C(C(=O)O)C=C1,water,298,-1.43,mol/L
CCCCN(C)N=NC1=CC=C(C(=O)O)C=C1,water,298,-1.81,mol/L
CCCCCN(C)N=NC1=CC=C(C(=O)O)C=C1,water,298,-2.37,mol/L
CCCCCCN(C)N=NC1=CC=C(C(=O)O)C=C1,water,298,-2.52,mol/L
CCCCCCCN(C)N=NC1=CC=C(C(=O)O)C=C1,water,298,-3.39,mol/L
O=C(C1=CC2=C(C=CC=C2)C=C1)N(O)C1=CC=C(Cl)C=C1,water,298,-5.47,mol/L
C1=CC2=CC=C3C=CC=NC3=C2N=C1,water,298,-2.31,mol/L
CC(C)CNCC1=CC=CC(C(=O)C2=CSC(S(N)(=O)=O)=C2)=C1,water,298,-2.05,mol/L
CCCCNCC1=CC=C(C(=O)C2=CSC(S(N)(=O)=O)=C2)C=C1,water,298,-2.21,mol/L
CC(C)CCNCC1=CC=CC(C(=O)C2=CSC(S(N)(=O)=O)=C2)=C1,water,298,-1.5,mol/L
CC(C)CN(C)CC1=C(O)C=CC(C(=O)C2=CSC(S(N)(=O)=O)=C2)=C1,water,298,-1.42,mol/L
CC(C)(C)NCC1=CC=C(S(=O)(=O)C2=CSC(S(N)(=O)=O)=C2)C=C1,water,298,-1.98,mol/L
CCCCNCC1=CC=C(S(=O)(=O)C2=CSC(S(N)(=O)=O)=C2)C=C1,water,298,-1.68,mol/L
NS(=O)(=O)C1=CC(C(=O)C2=CC=C(CN3CCOCC3)C=C2)=CS1,water,298,-1.52,mol/L
CC(C)NCC1=CC=CC(S(=O)(=O)C2=CSC(S(N)(=O)=O)=C2)=C1,water,298,-1.56,mol/L
CCC(C)NCC1=CC=CC(S(=O)(=O)C2=CSC(S(N)(=O)=O)=C2)=C1,water,298,-1.33,mol/L
NS(=O)(=O)C1=CC(C(=O)C2=CC(CN3CCOCC3)=CC=C2)=CS1,water,298,-1.92,mol/L
CNC(=O)C1=CC=CC(NCC(=O)NCCC2=CC(OC)=C(OC)C=C2)=C1,water,298,-1.85,mol/L
CCNCC1=CC2=C(OC(S(N)(=O)=O)=C2)S1,water,298,-1.04,mol/L
CC(C)CNCC1=CC2=C(OC(S(N)(=O)=O)=C2)S1,water,298,-1.33,mol/L
CCOCCNCC1=CC2=C(OC(S(N)(=O)=O)=C2)S1,water,298,-0.92,mol/L
COC1=C(OC)C=C(CCNC(=O)CNC2=CC(C(N)=O)=CC=C2)C=C1,water,298,-2.69,mol/L
OP(=O)(O)OCN1C(=O)NC(C2=CC=CC=C2)(C2=CC=CC=C2)C1=O,water,298,-0.43,mol/L
NS(=O)(=O)C1=CC2=C(O1)SC(CNCC1=CC=CC=N1)=C2,water,298,-1.33,mol/L
NS(=O)(=O)C1=CC2=C(S1)C(O)CCS2,water,298,-2.25,mol/L
CC(C)N(C(=O)COC(=O)C1=CC=CC=C1)C(C)C,water,298,-3.34,mol/L
NS(=O)(=O)C1=CC2=C(SCCC2O)S1,water,298,-2.59,mol/L
NS(=O)(=O)C1=CC2=C(S1)C(=O)CCS2,water,298,-3.49,mol/L
CN(CCO)C(=O)COC(=O)C1=CC=CC=C1,water,298,-1.09,mol/L
CCCN(CCC)C(=O)COC(=O)C1=CC=CC=C1,water,298,-2.38,mol/L
O=C(OCC(=O)N1CCCCC1)C1=CC=CC=C1,water,298,-2.5,mol/L
CN(C(=O)COC(=O)C1=CC=CC=C1)C1CCCCC1,water,298,-3.29,mol/L
NS(=O)(=O)C1=CC2=C(SCCC2=O)S1,water,298,-3.55,mol/L
CC1=CC=C(CN2C=C(F)C(=O)NC2=O)C=C1,water,298,-2.92,mol/L
O=C(OCC(=O)N1CCOCC1)C1=CC=CC=C1,water,298,-1.77,mol/L
CCCCN(CCCC)C(=O)COC(=O)C1=CC=CC=C1,water,298,-3.56,mol/L
O=C(OCC(=O)N(CCO)CCO)C1=CC=CC=C1,water,298,0.43,mol/L
NS(=O)(=O)C1=CC2=C(S1)C(O)CCS2=O,water,298,-1.57,mol/L
NS(=O)(=O)C1=CC2=C(S1)S(=O)CCC2O,water,298,-1.35,mol/L
NS(=O)(=O)C1=CC2=C(S1)S(=O)(=O)CCC2,water,298,-2.68,mol/L
NS(=O)(=O)C1=CC2=C(S1)S(=O)(=O)CCC2=O,water,298,-3.02,mol/L
O=C1NC(=O)N(CC2=C(Cl)C=C(Cl)C=C2)C=C1F,water,298,-3.94,mol/L
NS(=O)(=O)C1=CC2=C(CC(O)CS2(=O)=O)S1,water,298,-1.59,mol/L
NS(=O)(=O)C1=CC2=C(S1)C(O)CCS2(=O)=O,water,298,-1.28,mol/L
NC(=O)C1CCCN1C(=O)COC(=O)C1=CC=CC=C1,water,298,-1.05,mol/L
NS(=O)(=O)C1=CC2=C(S1)C(=O)CCS2(=O)=O,water,298,-3.67,mol/L
NS(=O)(=O)C1=CC2=C(S1)S(=O)(=O)CC(O)C2,water,298,-1.54,mol/L
CNC1=C(NC2=C3C=CC=CC3=NC3=C2C=CC=C3)C=CC(NS(C)(=O)=O)=C1,water,298,-2.94,mol/L
CN(C(=O)CNC(=O)CN)C1=C(C(=O)C2=C(Cl)C=CC=C2)C=C(Cl)C=C1,water,298,-2.33,mol/L
NC(C(=O)O)C1=CC=C(O)C=C1,water,298,-0.53,mol/L
NS(=O)(=O)C1=CC2=C(S1)S(=O)(=O)CCC2O,water,298,-1.65,mol/L
CCCCOP(=O)(O)OCCCC,water,298,-1.09,mol/L
O=C(C(=O)C1=CC=CC=C1)C1=CC=CC=C1,water,298,-2.8,mol/L
CC(=O)NC(CC(C)C)C(=O)O,water,298,-1.13,mol/L
NC(CSSCC(N)C(=O)O)C(=O)O,water,298,-3.31,mol/L
COC1=C(CC(C)NC(C)CC2=C(OC)C=CC=C2)C=CC=C1,water,298,-2.0,mol/L
CN1CCC23C4=C5C=CC(OCC6=CC=CC=C6)=C4OC2C(O)C=CC3C1C5,water,298,-2.22,mol/L
CC(C)NC1=NC(Cl)=NC(N)=N1,water,298,-1.77,mol/L
CCOC1=C2OC3C(O)C=CC4C5CC(=C2C43CCN5C)C=C1,water,298,-0.82,mol/L
C=CC1CN2CCC1CC2C(O)C1=CC=NC2=C1C=C(OC)C=C2,water,298,-1.2,mol/L
CNC(C)C(O)C1=CC=CC=C1,water,298,-0.35,mol/L
COC(=O)C1C(OC(=O)C2=CC=CC=C2)CC2CCC1N2C,water,298,-2.08,mol/L
COC1=C2OC3C(O)C=CC4C5CC(=C2C43CCN5C)C=C1,water,298,-1.1,mol/L
O=S(=O)(NS(=O)(=O)C1=CC=C(Cl)C=C1)C1=CC=C(Cl)C=C1,water,298,-2.48,mol/L
CC1=CSC(NS(=O)(=O)C2=CC=C(N)C=C2)=N1,water,298,-2.91,mol/L
CC(CN1C2=C(C=CC=C2)SC2=C1C=CC=C2)N(C)C,water,298,-4.03,mol/L
CC1(C)C2CCC1(CS(=O)(=O)O)C(=O)C2,water,298,-0.3,mol/L
COC1=CC=CC(CC(C)NC(C)CC2=C(OC)C=CC=C2)=C1,water,298,-3.0,mol/L
C=CC1CN2CCC1CC2C(O)C1=CC=NC2=C1C=CC=C2,water,298,-2.35,mol/L
COC1=C2OC3C(O)CCC4C5CC(=C2C43CCN5C)C=C1,water,298,-1.0,mol/L
C1=C(C=C(C(=C1[N+](=O)[O-])O)[N+](=O)[O-])[N+](=O)[O-],water,298,-2.83,mol/L
CCSC(=S)NC(CC(=O)O)C(=O)O,water,298,-1.38,mol/L
CC(C)C(O)(CCC(C)(O)C(=O)O)C(=O)O,water,298,-1.69,mol/L
CC(SC(=S)SC(C)C(=O)O)C(=O)O,water,298,-1.41,mol/L
O=C(O)CC(CSC(=O)O)C1=CC=CC=C1,water,298,-1.24,mol/L
CC1=NC=C(N1CCO)[N+](=O)[O-],water,298,-1.21,mol/L
CCNC1=NC(Cl)=NC(NC(C)C)=N1,water,298,-3.76,mol/L
ON=C(C1=CC=CC=C1)C(=NO)C1=CC=CC=C1,water,298,-5.9,mol/L
CC1=NC=C(N1CC(C)O)[N+](=O)[O-],water,298,-0.74,mol/L
NC1CN(C2=CC3=C(C=C2F)C(=O)C(C(=O)O)=CN3C2CC2)C1,water,298,-5.32,mol/L
CNC1CN(C2=CC3=C(C=C2F)C(=O)C(C(=O)O)=CN3C2CC2)C1,water,298,-5.41,mol/L
CC1(N)CN(C2=CC3=C(C=C2F)C(=O)C(C(=O)O)=CN3C2CC2)C1,water,298,-5.62,mol/L
CC1(N)CN(C2=C(Cl)C3=C(C=C2F)C(=O)C(C(=O)O)=CN3C2CC2)C1,water,298,-5.33,mol/L
CC1(N)CN(C2=C(F)C3=C(C(=O)C(C(=O)O)=CN3C3CC3)C(N)=C2F)C1,water,298,-4.38,mol/L
C1=CC=C(CNC2=NC=NC3=C2N=CN3)C=C1,water,298,-3.6,mol/L
NC1CN(C2=C(F)C3=C(C=C2F)C(=O)C(C(=O)O)=CN3C2CC2)C1,water,298,-5.27,mol/L
C1=COC(CNC2=NC=NC3=C2N=CN3)=C1,water,298,-3.95,mol/L
CC1(N)CN(C2=C(F)C3=C(C=C2F)C(=O)C(C(=O)O)=CN3C2CC2)C1,water,298,-5.64,mol/L
CNC1CN(C2=C(F)C3=C(C=C2F)C(=O)C(C(=O)O)=CN3C2CC2)C1,water,298,-5.31,mol/L
CCN1C=C(C(=O)O)C(=O)C2=C1C=C1OCOC1=C2,water,298,-4.38,mol/L
COC1=CC=C2C=C(C(C)C(=O)OC(C)C)C=CC2=C1,water,298,-5.48,mol/L
ClC1=CC(Cl)=C(Cl)C2=C1OC1=C(C=CC=C1)O2,water,298,-7.61,mol/L
CCOC(=O)C1CCN2C(C(=O)C3=CC=CC=C3)=CC=C12,water,298,-4.2,mol/L
COC1=CC2=C(C=CC(C)(C)O2)C2=C1C(=O)C1=C(N=CC=C1)N2C,water,298,-3.96,mol/L
CN1CCN(C2=NC3=C(C=CC=C3)OC3=C2C=C(Cl)C=C3)CC1,water,298,-4.42,mol/L
NC(=O)N1C2=C(C=CC=C2)C(O)C(O)C2=C1C=CC=C2,water,298,-2.03,mol/L
CCCCCCCCNC(=O)OCC1OC(O)C(O)C(O)C1O,water,298,-2.35,mol/L
CCCCCCCCCNC(=O)OCC1OC(O)C(O)C(O)C1O,water,298,-2.96,mol/L
CCCCCCCCCCNC(=O)OCC1OC(O)C(O)C(O)C1O,water,298,-3.56,mol/L
CC1=C(OCC2=CC=CC=C2)C=CC2=C1OC(N1CCOCC1)=CC2=O,water,298,-5.16,mol/L
CC1=C(OCC2=CC=CC=N2)C=CC2=C1OC(N1CCOCC1)=CC2=O,water,298,-4.45,mol/L
CC(C)(C)NCC(O)C1=CC(CO)=C(O)C=C1,water,298,-0.45,mol/L
CN(C)C(=O)CCC(=O)N(C)C,water,298,0.5,mol/L
CCOC(=O)C1=CC=C(N)C=C1,water,298,-2.2,mol/L
CCC1(CC)CCC(=O)N(CO)C1=O,water,298,-3.96,mol/L
CCC1(CC)C(=O)NC(=O)N(CO)C1=O,water,298,-3.93,mol/L
NC1=NC2=C(C=N1)N=CN2CCC(CO)CO,water,298,-0.3,mol/L
O=C1C2=C(C=CC(CCCCO)=C2)OCC2=C1SC=C2,water,298,-3.92,mol/L
CCC1(C2=CC3CCC(C2)C3)C(=O)NC(=O)NC1=O,water,298,-2.77,mol/L
O=C(CS)NC1=CC=C2C=CC=CC2=C1,water,298,-3.34,mol/L
O=C(O)C1=C(C(=O)C2=CC=C(Cl)C=C2)C=CC=C1,water,298,-2.72,mol/L
C=CC1(C=C)C(=O)NC(=O)NC1=O,water,298,-2.06,mol/L
C=CC1(C(C)C)C(=O)NC(=O)NC1=O,water,298,-1.71,mol/L
C=CC1(CC(C)C)C(=O)NC(=O)NC1=O,water,298,-2.12,mol/L
CCC(=O)OCN1C(=O)NC(C2=CC=CC=C2)(C2=CC=CC=C2)C1=O,water,298,-5.07,mol/L
CCCC(=O)OCN1C(=O)NC(C2=CC=CC=C2)(C2=CC=CC=C2)C1=O,water,298,-4.68,mol/L
CCCCC(=O)OCN1C(=O)NC(C2=CC=CC=C2)(C2=CC=CC=C2)C1=O,water,298,-5.89,mol/L
CCCCCC(=O)OCN1C(=O)C(NC1=O)(C2=CC=CC=C2)C3=CC=CC=C3,water,298,-6.3,mol/L
NC1=NC(=O)N(C2CCC(CO)O2)C=C1,water,298,-0.43,mol/L
CC(=O)OC1C2=C(C=CC=C2)N(C(N)=O)C2=C(C=CC=C2)C1OC(C)=O,water,298,-3.55,mol/L
COC(=O)C(NC(=O)C(Cl)Cl)C(C)O,water,298,-0.62,mol/L
O=C(NC(CO)C(=O)O)C(Cl)Cl,water,298,-0.03,mol/L
O=C(OCC(=O)N1CCC1)C1=CC=CC=C1,water,298,-1.61,mol/L
O=C(OCC(=O)N1CCCC1)C1=CC=CC=C1,water,298,-1.57,mol/L
CC(=O)N(C)C(=O)COC(=O)C1=CC=CC=C1,water,298,-0.5,mol/L
CCC1CCCCN1C(=O)COC(=O)C1=CC=CC=C1,water,298,-2.72,mol/L
CC1CCCC(C)N1C(=O)COC(=O)C1=CC=CC=C1,water,298,-0.82,mol/L
O=C(OCC(=O)N1CCCCCC1)C1=CC=CC=C1,water,298,-2.54,mol/L
O=C(COC(=O)C1=CC=CC=C1)NC1CCCCC1,water,298,-3.9,mol/L
O=C(OCC(=O)N1CCC(O)CC1)C1=CC=CC=C1,water,298,-1.35,mol/L
CCC(=O)OCSC1=NC=NC2=C1N=CN2,water,298,-2.4,mol/L
O=C(COC(=O)C1=CC=CC=C1)NC(CO)(CO)CO,water,298,-1.27,mol/L
CCCC(=O)OCSC1=NC=NC2=C1N=CN2,water,298,-2.69,mol/L
CCCCC(=O)OCSC1=NC=NC2=C1N=CN2,water,298,-3.1,mol/L
CCCCCC(=O)OCSC1=NC=NC2=C1N=CN2,water,298,-3.62,mol/L
COC(=O)C1CCCN1C(=O)COC(=O)C1=CC=CC=C1,water,298,-2.08,mol/L
O=C(OCC(=O)N(C1CCCCC1)C1CCCCC1)C1=CC=CC=C1,water,298,-5.06,mol/L
CCCCCCCC(=O)OCSC1=NC=NC2=C1N=CN2,water,298,-4.61,mol/L
CCOC(=O)C(C)C1=CC2=CC=C(OC)C=C2C=C1,water,298,-5.24,mol/L
CCCOC(=O)C(C)C1=CC2=CC=C(OC)C=C2C=C1,water,298,-5.82,mol/L
CCCCOC(=O)C(C)C1=CC=C2C=C(OC)C=CC2=C1,water,298,-7.53,mol/L
COC1=CC=C2C=C(C(C)C(=O)OCCO)C=CC2=C1,water,298,-3.33,mol/L
COC1=CC2=C(C=C1)C=C(C(C)C(=O)OC(C)(C)C)C=C2,water,298,-6.5,mol/L
CCCCCOC(=O)C(C)C1=CC2=CC=C(OC)C=C2C=C1,water,298,-6.97,mol/L
COC1=CC=C2C=C(C(C)C(=O)OCC(C)O)C=CC2=C1,water,298,-3.31,mol/L
COC1=CC2=CC=C(C(C)C(=O)OCCCO)C=C2C=C1,water,298,-3.4,mol/L
CCCCCCOC(=O)C(C)C1=CC=C2C=C(OC)C=CC2=C1,water,298,-7.54,mol/L
CCCCCCCOC(=O)C(C)C1=CC=C2C=C(OC)C=CC2=C1,water,298,-7.12,mol/L
COC1=CC=C2C=C(C(C)C(=O)OCC(C)=O)C=CC2=C1,water,298,-4.65,mol/L
CCC#CCCOC(=O)C(C)C1=CC=C2C=C(OC)C=CC2=C1,water,298,-7.33,mol/L
COC1=CC=C2C=C(C(C)C(=O)OCC(O)CO)C=CC2=C1,water,298,-2.62,mol/L
COC1=CC=C2C=C(C(C)C(=O)OC3CCCCC3O)C=CC2=C1,water,298,-5.07,mol/L
CCCCCCCC(=O)OC1C(C(O)CO)OC2OC(C)(C)OC21,water,298,-3.17,mol/L
COC1=CC=C2C=C(C(C)C(=O)OC3CCCCC3=O)C=CC2=C1,water,298,-5.59,mol/L
CCC=CCCOC(=O)C(C)C1=CC=C2C=C(OC)C=CC2=C1,water,298,-7.36,mol/L
COC1=CC2=C(C=C1)C=C(C(C)C(=O)OC1COC3C(O)COC13)C=C2,water,298,-3.98,mol/L
CCOC1=CC=C(NC(=O)NC2=CC=C(OCC)C=C2)C=C1,water,298,-4.44,mol/L
CCCOCC(=NC1=C(C(F)(F)F)C=C(Cl)C=C1)N1C=CN=C1,water,298,-4.44,mol/L
CC1=COC2=CC3=C(C=C(N)C(=O)O3)C=C12,water,298,-5.08,mol/L
COC1=CC2=C(C=C3OC=C(C)C3=C2)OC1=O,water,298,-5.0,mol/L
COC(=O)C1=CC2=C(OC1=O)C(C)=C1OC=C(C)C1=C2,water,298,-4.9,mol/L
CC(=O)OCN1C(=O)NC(C2=CC=CC=C2)(C2=CC=CC=C2)C1=O,water,298,-4.91,mol/L
CN(C)C(=O)COC(=O)C1CCN2C(C(=O)C3=CC=CC=C3)=CC=C12,water,298,-3.03,mol/L
COC(=O)C1=C(O)C=CC(CCC2=C(OC)C=CC(OC)=C2)=C1,water,298,-6.39,mol/L
C=CCN1C=NC2=C1N=C(NC1=CC=CC=C1)NC2=O,water,298,-5.09,mol/L
CCC1C(N)CN1C1=CC2=C(C=C1F)C(=O)C(C(=O)O)=CN2C1CC1,water,298,-3.91,mol/L
CNC1CN(C2=CC3=C(C=C2F)C(=O)C(C(=O)O)=CN3C2CC2)C1C,water,298,-4.57,mol/L
CC1N(C2=CC3=C(C=C2F)C(=O)C(C(=O)O)=CN3C2CC2)CC1(C)N,water,298,-5.42,mol/L
CC1C(N)CN1C1=C(Cl)C2=C(C=C1F)C(=O)C(C(=O)O)=CN2C1CC1,water,298,-4.48,mol/L
CC1C(N)CN1C1=C(F)C2=C(C(=O)C(C(=O)O)=CN2C2CC2)C(N)=C1F,water,298,-3.98,mol/L
CNC1CN(C2=C(F)C3=C(C=C2F)C(=O)C(C(=O)O)=CN3C2CC2)C1C,water,298,-4.44,mol/L
CCC1C(N)CN1C1=C(F)C2=C(C=C1F)C(=O)C(C(=O)O)=CN2C1CC1,water,298,-3.81,mol/L
CC1N(C2=C(F)C3=C(C=C2F)C(=O)C(C(=O)O)=CN3C2CC2)CC1(C)N,water,298,-5.04,mol/L
CC1C(N)CN1C1=CC2=C(C=C1F)C(=O)C(C(=O)O)=CN2C1CC1,water,298,-4.63,mol/L
CC1C(N)CN1C1=C(F)C2=C(C=C1F)C(=O)C(C(=O)O)=CN2C1CC1,water,298,-4.17,mol/L
CC12CCC(=O)C=C1CCC1C2CCC2(C)C(OC(=O)C(CO)CO)CCC12,water,298,-4.25,mol/L
OCC1OC(N2C(C3=CC=CO3)=NC3=C2C=CC=C3)C(O)C1O,water,298,-2.92,mol/L
OCC1OC(N2C(C3=CC=CO3)=NC3=C2C=CC=C3)C(O)C(O)C1O,water,298,-2.33,mol/L
CCCCCCCCSC1C(O)C(O)OC(CO)C1O,water,298,-2.91,mol/L
CC(O)C1C(=O)N2C(C(=O)O)=C(SCC(=N)N(C)C)C(C)C12,water,298,-0.28,mol/L
CC1=C(N)C=CC(N=NC2=C(C)C=CC=C2)=C1,water,298,-4.05,mol/L
CN(C)C1=CC=C(N=NC2=CC=CC=C2)C=C1,water,298,-5.25,mol/L
CC1NC(=O)C2=C(C=CC=C2)NC1=O,water,298,-2.38,mol/L
CC1=CC=C(N=NC2=C(N)C=CC(C)=C2)C=C1,water,298,-3.9,mol/L
O=C1CNC(=O)C2=C(C=CC(Cl)=C2)N1,water,298,-3.05,mol/L
BrC1=CC=CC(NC2=NC=NC3=CC4=C(C=NN4)C=C32)=C1,water,298,-3.96,mol/L
CCN1C=C(C(=O)O)C(=O)C2=C1N=C(C)C=C2,water,298,-3.87,mol/L
C=CC1(C(C)CCC)C(=O)NC(=O)NC1=O,water,298,-2.36,mol/L
BrC1=CC=CC(NC2=NC=NC3=CC4=C(C=CN4)C=C32)=C1,water,298,-2.82,mol/L
CCCCC(CO[N+](=O)O)O[N+](=O)O,water,298,-3.1,mol/L
CN1C(=O)CN=C(C2=CC=CC=C2)C2=C1C=CC(Cl)=C2,water,298,-3.71,mol/L
CN(C)C1=CC=C(N=NC2=CC=C(S(=O)(=O)O)C=C2)C=C1,water,298,-3.86,mol/L
C1C(=O)NC2=C(C=C(C=C2)[N+](=O)[O-])C(=N1)C3=CC=CC=C3,water,298,-3.79,mol/L
O=C1NC(C2=CC=CC=C2)(C2=CC=CC=C2)C(=O)N1CO,water,298,-4.47,mol/L
C1C(=O)NC2=C(C=C(C=C2)[N+](=O)[O-])C(=N1)C3=CC=CC=C3Cl,water,298,-4.41,mol/L
CCCC(CCC)C(=O)NCCCC(=O)O,water,298,-1.5,mol/L
CC1=CC(C)=C(N=CN(C)C=NC2=C(C)C=C(C)C=C2)C=C1,water,298,-4.17,mol/L
CN1C=CC2=C1C=C1N=CN=C(NC3=CC(Br)=CC=C3)C1=C2,water,298,-3.31,mol/L
CN1N=CC2=C1C=C1N=CN=C(NC3=CC(Br)=CC=C3)C1=C2,water,298,-3.48,mol/L
O=C(O)CN1C=CC2=C1C=C1N=CN=C(NC3=CC(Br)=CC=C3)C1=C2,water,298,-1.96,mol/L
CCN(C(N)=O)C1=CC=C(OC)C=C1,water,298,-1.27,mol/L
CCC1=CC=C(C(=O)NN(C(=O)C2=CC(C)=CC(C)=C2)C(C)(C)C)C=C1,water,298,-5.63,mol/L
C1=CC(=C(C=C1C(=O)O)[N+](=O)[O-])Cl,water,298,-2.59,mol/L
O=C1NC(=O)N(CC2=CC=CC=C2)C=C1F,water,298,-2.65,mol/L
ClC1=CC(Cl)=C(C(CN2C=CN=C2)OCC2=C(Cl)C=CC(Cl)=C2)C=C1,water,298,-3.54,mol/L
OCC1OCOC2COCOC12,water,298,-0.62,mol/L
CCCC(CO[N+](=O)O)O[N+](=O)O,water,298,-2.5,mol/L
CC(CCCO[N+](=O)O)O[N+](=O)O,water,298,-2.44,mol/L
CC(CCCCO[N+](=O)O)O[N+](=O)O,water,298,-2.84,mol/L
C1CC(CC(C1)O[N+](=O)[O-])O[N+](=O)[O-],water,298,-2.33,mol/L
CN1CCN(CC2=CN=C(Cl)C=C2)C1=NC#N,water,298,-2.13,mol/L
C1CCC(C(C1)O[N+](=O)O)O[N+](=O)O,water,298,-2.35,mol/L
N#CN=C1NCCN1CC1=CN=C(Cl)C=C1,water,298,-2.63,mol/L
C1CCC(C(CC1)O[N+](=O)[O-])O[N+](=O)[O-],water,298,-3.02,mol/L
CCN(CC)CCSC1=NC2=C(N=N1)NC1=C2C=CC=C1,water,298,-3.09,mol/L
NC1=NC2=C(C=N1)N=CN2CCC1COC(=O)OC1,water,298,-1.43,mol/L
O=C(NC(=O)C1=C(F)C=CC=C1F)NC1=C(F)C(Cl)=C(F)C(Cl)=C1,water,298,-7.63,mol/L
CS(=O)(=O)C1=CC=C(C2=C(C3=CC=CC=C3)C(=O)OC2)C=C1,water,298,-4.52,mol/L
CN1C=NC=C1CC(N)C(=O)O,water,298,0.08,mol/L
OCC1OC2OC(C(Cl)(Cl)Cl)OC2C1O,water,298,-2.12,mol/L
O=C(O)C1CCC(C(=O)O)SS1,water,298,-1.93,mol/L
COC1=NC=C(NC(=O)C2CC2)C=C1,water,298,-2.14,mol/L
NS(=O)(=O)C1=C(Cl)C=C(NCC2=CC=CO2)C(C(=O)O)=C1,water,298,-3.83,mol/L
CCOC(=O)C(CCC1=CC=CC=C1)NC(C)CN1CCCC1C(=O)O,water,298,-1.24,mol/L
CCOC(=O)C(CCC1=CC=CC=C1)NC(C)C(=O)N1CCCC1C(=O)O,water,298,-1.18,mol/L
O=C1OC(C(O)C(O)CO)C(O)C1O,water,298,0.39,mol/L
OCC1OC(OCCC2=C3C=CC=CC3=CC=C2)C(O)C(O)C1O,water,298,-1.11,mol/L
CCC1(C2=CC=CC=C2)NC(=O)NC1=O,water,298,-2.64,mol/L
OC1COC(OC2=CC=CC=C2)C(O)C1O,water,298,-1.66,mol/L
CC1(C)OCC(COC(=O)C2=C(C(=O)O)C=CC=C2)O1,water,298,-1.23,mol/L
O=C(O)CCCC1CCCC2NC(=O)NC12,water,298,-0.96,mol/L
NC(CC1=CNC2=C1C=CC=C2)C(=O)O,water,298,-1.77,mol/L
C1=C(OC(=C1)[N+](=O)[O-])C=NNC(=O)N,water,298,-2.92,mol/L
CCCC(C)C1(CC)C(=O)NC(=O)NC1=O,water,298,-2.39,mol/L