Solute,Solvent,Temperature_K,Solubility,Units
[Mg++].CCCCCCCCCc1cc2ccccc2c(c1CCCCCCCCC)[S]([O-])(=O)=O.CCCCCCCCCc3cc4ccccc4c(c3CCCCCCCCC)[S]([O-])(=O)=O,water,298,-4.62888944,mol/L
Oc1ccc2ccccc2c1C=O,water,298,-3.89356759,mol/L
O=C(Cc1ccccc1)OCCc2ccccc2,water,298,-4.038334705,mol/L
Nc1nc(N)c(N=O)c(N)n1,water,298,-3.845472951,mol/L
ClC\C=C/Cl,water,298,-1.706753006,mol/L
CNC(=O)c1cc(Oc2ccc(NC(=O)Nc3ccc(Cl)c(c3)C(F)(F)F)cc2)ccn1,water,298,-6.667295084,mol/L
COCc1ccc(O)c(OC)c1,water,298,-1.893447681,mol/L
CCCCCC1COCCC1OC(C)=O,water,298,-2.998795888,mol/L
Nc1ccc(N=Nc2ccccc2)c(N)c1,water,298,-2.997665561,mol/L
COc1ccc(O)c(c1)C(C)(C)C,water,298,-2.927488442,mol/L
C1CC(CCN1)N2CCOCC2,water,298,-2.902722822,mol/L
[K+].CCCCCCCCCCCCCCCCO[P](O)([O-])=O,water,298,-3.230588683,mol/L
CCO[Si](CC(C)C)(OCC)OCC,water,298,-3.016846171,mol/L
Oc1cc(C=O)cc(c1O)[N+]([O-])=O,water,298,-1.937833911,mol/L
O=C/C=C/c1ccccc1,water,298,-1.796741824,mol/L
CCOC(=O)C(C)(C)c1ccccc1,water,298,-3.045838317,mol/L
COc1ccc(N)cc1,water,298,-0.768232754,mol/L
COc1ccc(cc1N)[S](O)(=O)=O,water,298,-1.985745015,mol/L
Cc1ccc(N)c(c1)[N+]([O-])=O,water,298,-1.860061225,mol/L
S=C=S,water,298,-1.559422096,mol/L
COC(=O)c1ccccc1,water,298,-1.811798351,mol/L
CCCCCCCC(OC)OC,water,298,-2.918005419,mol/L
C1CNCCNCCNCCN1,water,298,-0.031020416,mol/L
C1CNCCNCCNCCN1,water,298,-0.037567693,mol/L
C=CCCCCCCCCC=O,water,298,-3.8931862,mol/L
COC(=O)CCCCCCCCC(=O)OC1CC(C)(C)N(C)C(C)(C)C1.CN2C(C)(C)CC(CC2(C)C)OC(=O)CCCCCCCCC(=O)OC3CC(C)(C)N(C)C(C)(C)C3,water,298,-4.611221235,mol/L
CCCCCCCCCCO,water,298,-3.875157305,mol/L
CC(C)CCC(C)Nc1ccc(NC(C)CCC(C)C)cc1,water,298,-4.161399379,mol/L
CC(C)Cc1ccc(cc1)C(C)C(O)=O,water,298,-3.992248355,mol/L
[Na+].[O-][Cl](=O)(=O)=O,water,298,-1.766528496,mol/L
[Na+].[O-][Cl](=O)(=O)=O,water,298,-1.767773488,mol/L
[K+].[I-],water,298,1.097950015,mol/L
[K].CCCCCCCCCCCCCCCCCC.O[P](O)(O)=O,water,298,-3.283035583,mol/L
C[C@@H]1C[C@H]2[C@@H]3C[C@H](F)C4=CC(=O)C=C[C@]4(C)[C@H]3[C@@H](O)C[C@]2(C)[C@H]1C(=O)CO,water,298,-3.266097899,mol/L
CCNc1nc(NC(C)C)nc(SC)n1,water,298,-3.047039957,mol/L
COc1cccc(c1)C(C)=O,water,298,-1.869107387,mol/L
C[C@@H]1C[C@H]2[C@@H]3C[C@H](F)C4=CC(=O)C=C[C@]4(C)[C@H]3[C@@H](O)C[C@]2(C)[C@H]1C(=O)CO,water,298,-3.268232029,mol/L
C[C@@H]1C[C@H]2[C@@H]3C[C@H](F)C4=CC(=O)C=C[C@]4(C)[C@H]3[C@@H](O)C[C@]2(C)[C@H]1C(=O)CO,water,298,-3.267590688,mol/L
Nc1cccc(O)c1,water,298,-0.734740139,mol/L
[nH]1cnc2ccccc12,water,298,-1.769197233,mol/L
O=C1NC(=O)NC(=O)N1,water,298,-1.807646076,mol/L
ClCCCN1C(=O)Nc2ccccc12,water,298,-3.020394269,mol/L
CO[S](C)(=O)=O,water,298,0.259108583,mol/L
Clc1ccccn1,water,298,-0.754145669,mol/L
[Na+].ClN1C(=O)[N-]C(=O)N(Cl)C1=O,water,298,-1.041288047,mol/L
Oc1cc(Cl)ccc1Cl,water,298,-1.911165602,mol/L
[Na+].[Na+].[Cu++].[Cu++].N[S](=O)(=O)c1ccc([O-])c(c1)N=Nc2c([O-])c3ccc(Nc4ccc5c([O-])c(N=Nc6cc(ccc6[O-])[S](N)(=O)=O)c(cc5c4)[S]([O-])(=O)=O)cc3cc2[S]([O-])(=O)=O,water,298,-2.710489277,mol/L
NC(=O)c1ccccc1O,water,298,-1.836127816,mol/L
CCCCC(CC)COC(=O)CCCCCCCCC(=O)OCC(CC)CCCC,water,298,-3.329074326,mol/L
[H+].[Cl-].CCN(CC)CCNC(=O)c1cc(Cl)c(N)cc1OC,water,298,-3.225649088,mol/L
[As],water,298,-2.573579366,mol/L
OC(=O)CCCCCCCCCCC(O)=O,water,298,-3.061271485,mol/L
CC=C,water,298,-2.323056056,mol/L
CC(=O)OC(C)(C)CCCC(=C)C=C,water,298,-3.972751889,mol/L
O(c1ccccc1)c2ccccc2,water,298,-3.912924288,mol/L
C[C@]12CCC(=O)C=C1CC[C@@H]3[C@@H]2CC[C@@]4(C)[C@H]3CC[C@@]45CCC(=O)O5,water,298,-4.225003779,mol/L
CC(C)COC(=O)c1ccccc1C(=O)OCC(C)C,water,298,-4.137092067,mol/L
CCC(COC(=O)C(C)=C)(COC(=O)C(C)=C)COC(=O)C(C)=C,water,298,-4.226234297,mol/L
CC(C)c1ccc(O)cc1C,water,298,-2.854511354,mol/L
COC1CC(C)CCC1C(C)C,water,298,-3.930174452,mol/L
[Na+].[Na+].[O-]C(=O)c1ccccc1C2=C3C=C(Br)C(=O)C=C3Oc4c2cc(Br)c([O-])c4C5=CC=C[Hg]5,water,298,-4.593683066,mol/L
[Co],water,298,-4.302011219,mol/L
CC1=CCC2C(C1)C2(C)C,water,298,-4.670405271,mol/L
O=C1CCCCCCCCCC\C=C/CC1,water,298,-4.883187113,mol/L
O=[Zn],water,298,-4.448167715,mol/L
Cc1ccccc1Oc2ccccc2C,water,298,-4.843927714,mol/L
CCCCOC(=O)c1ccccc1C(=O)OCc2ccccc2,water,298,-5.044413258,mol/L
CC(C)c1cccc2ccccc12,water,298,-4.782393555,mol/L
CCC(Cc1ccc(C)cc1)(N(C)C)C(=O)c2ccc(cc2)N3CCOCC3,water,298,-5.133233152,mol/L
COc1ccc(cc1[N+]([O-])=O)C(=O)Nc2ccccc2,water,298,-4.987825809,mol/L
[Gd+3].[Gd+3].[O-]C(=O)C([O-])=O.[O-]C(=O)C([O-])=O.[O-]C(=O)C([O-])=O,water,298,-5.315185869,mol/L
Cc1ccccc1Oc2ccccc2C,water,298,-4.850088023,mol/L
[O--].[O--].[O--].[Sb+3].[Sb+3],water,298,-5.023754804,mol/L
Nc1nc(N)nc(N)n1.O=C2NC(=O)NC(=O)N2,water,298,-4.975513502,mol/L
[Lu+3].[Lu+3].[O-]C(=O)C([O-])=O.[O-]C(=O)C([O-])=O.[O-]C(=O)C([O-])=O,water,298,-5.356796119,mol/L
[Zn++].[Zn++].[Zn++].[O-][P]([O-])([O-])=O.[O-][P]([O-])([O-])=O,water,298,-5.155347286,mol/L
[O-][N+](=O)c1ccccc1c2ccc(Cl)cc2,water,298,-4.937209456,mol/L
CCCCOC(=O)c1ccccc1C(=O)OCc2ccccc2,water,298,-5.064910086,mol/L
CC1CC2=C(CC1(C)C(C)=O)C(C)(C)CCC2,water,298,-4.941791315,mol/L
[Mo].CCCCC(CC)C([O-])=O,water,298,-3.435168605,mol/L
Nc1cc(Cl)ccc1Oc2ccc(Cl)cc2Cl,water,298,-5.045264286,mol/L
CCCCCCOC(=O)CCCCC(=O)OCCCCCC,water,298,-5.082600349,mol/L
[Mo].CCCCC(CC)C([O-])=O,water,298,-4.261391826,mol/L
CCCCC(CC)COC(=O)CS[Sn](CCCC)(CCCC)SCC(=O)OCC(CC)CCCC,water,298,-5.394286712,mol/L
O=C(Nc1ccccc1)Nc2ccccc2,water,298,-4.920311611,mol/L
CCCC[Sn](=O)CCCC,water,298,-4.989557994,mol/L
[Sr++].Cc1c(Cl)cc(cc1[S](O)(=O)=O)N=Nc2c([O-])c(cc3ccccc23)C([O-])=O,water,298,-5.306582846,mol/L
CC1CCC(CC2=C1CCC2C)C(C)(C)OC(C)=O,water,298,-5.022602512,mol/L
O=[Te]=O,water,298,-4.805087436,mol/L
CCCCC(CC)CCCCCC(C)CCCC(O)=O,water,298,-5.056117837,mol/L
CC(C)CCCC(C)CCCC(C)(O)C#C,water,298,-4.953059619,mol/L
[Gd],water,298,-4.798650645,mol/L
O=[Te]=O,water,298,-1.816885336,mol/L
C[C@]12CC[C@H]3[C@@H](CCC4=CC(=O)CC[C@]34C)[C@@H]1CC[C@@H]2O,water,298,-5.078024893,mol/L
FC(F)=C(F)OC(F)(F)C(F)(F)F,water,298,-4.954296793,mol/L
C.CCCCCCCCCCCCO,water,298,-4.925960642,mol/L
CC(C)(c1cc(Br)c(O)c(Br)c1)c2cc(Br)c(O)c(Br)c2,water,298,-5.366283239,mol/L
CCCCCCCC(=O)OCC(C)(C)COC(=O)CCCCCCC,water,298,-5.190388951,mol/L
CC(=C)CC(C)(C)C,water,298,-4.688326948,mol/L
CCCCC(CC)COC(=O)CS[Sn](C)(SCC(=O)OCC(CC)CCCC)SCC(=O)OCC(CC)CCCC,water,298,-5.509685712,mol/L
CC1COCc2cc3c(cc12)C(C)(C)C(C)C3(C)C,water,298,-5.050573077,mol/L
[Cd++],water,298,-4.689084839,mol/L
CC(=C)CC(C)(C)C.N(c1ccccc1)c2ccccc2,water,298,-5.087662615,mol/L
[Na+].[Mg++].[Al+3].[O-][Si]([O-])=O.[O-][Si]([O-])=O.[O-][Si]([O-])=O,water,298,-5.130514687,mol/L
Nc1nc(N)nc(N)n1.O=C2NC(=O)NC(=O)N2,water,298,-5.064454586,mol/L
CC(C)(C)OOC(C)(C)C#CC(C)(C)OOC(C)(C)C,water,298,-5.114568529,mol/L
CCCCCCC(CCCC)C(O)=O,water,298,-4.959305967,mol/L
CCCCC(CC)COC(=O)c1ccc(N)cc1,water,298,-5.054393659,mol/L
[Ca++].CCCCCCC(O)CCCCCCCCCCC([O-])=O.CCCCCCC(O)CCCCCCCCCCC([O-])=O,water,298,-5.463097207,mol/L
[Ca++].CCCCCCCCCCCCCCCCCC([O-])=O.CCCCCCCCCCCCCCCCCC([O-])=O,water,298,-5.440787474,mol/L
CCCCOC(=O)CCC(C)(OOC(C)(C)C)OOC(C)(C)C,water,298,-5.189881345,mol/L
ClC1=C(Cl)C(=O)c2ccccc2C1=O,water,298,-5.023776406,mol/L
[Ca++].CCCCCCC(O)CCCCCCCCCCC([O-])=O.CCCCCCC(O)CCCCCCCCCCC([O-])=O,water,298,-5.479184027,mol/L
CC1=CCC2CC1C2(C)C.CC3(C)OC4(C)CCC3CC4.CC5(C)C6CCC(C6)C5=C.CC7(C)C8CCC7(C)C(=O)C8,water,298,-5.438370605,mol/L
[Na+].COc1ccccc1NC(=O)c2cc3ccccc3cc2[O-],water,298,-5.176510186,mol/L
O=[Cd],water,298,-4.786382933,mol/L
O=[P](Oc1ccccc1)(Oc2ccccc2)Oc3ccccc3,water,298,-5.191381807,mol/L
CC(c1ccccc1)c2ccccc2,water,298,-4.942642328,mol/L
Clc1ccccc1C(Cl)(Cl)Cl,water,298,-5.043933097,mol/L
CCCCCCCCCCOC(C)=O,water,298,-4.985758302,mol/L
[Cu+].[S-]C#N,water,298,-4.777548239,mol/L
CN(CCOC(=O)C=C)[S](=O)(=O)C(F)(F)C(F)(F)C(F)(F)C(F)(F)F,water,298,-5.308746093,mol/L
COC(=O)C(=O)c1ccccc1,water,298,-4.909915974,mol/L
CCCCC(C#N)c1ccccc1,water,298,-3.662354453,mol/L
FC(F)(F)C(Cl)(Cl)Cl,water,298,-4.333192393,mol/L
CC(C)CCCCCCCCCCO,water,298,-5.000794033,mol/L
CCC(C)C(C)C(C)CCc1ccc(O)cc1,water,298,-5.068896113,mol/L
CCOc1ccccc1NC(=O)c2cc3ccccc3cc2O,water,298,-5.186601809,mol/L
[Ba++].Cc1cc(N\N=C\2C(=O)C=Cc3ccccc23)c(cc1Cl)[S]([O-])(=O)=O.Cc4cc(N\N=C\5C(=O)C=Cc6ccccc56)c(cc4Cl)[S]([O-])(=O)=O,water,298,-5.647849293,mol/L
[CaH2].O=[Zr],water,298,-4.87307926,mol/L
CC(C)OC(=O)CCCCCCCCC(=O)OC(C)C,water,298,-5.155961214,mol/L
CCCCCCOC(=O)c1ccccc1O,water,298,-5.045878208,mol/L
CCCCCCC(O)CCCCCCCCCCCO,water,298,-5.156094631,mol/L
ClC1=C(Cl)C(=O)C(=C(Cl)C1=O)Cl,water,298,-5.089686144,mol/L
NC(=O)c1ccccc1O,water,298,-1.840492621,mol/L
[K+].CCCCCCCCCCCCCCCCO[P](O)([O-])=O,water,298,-3.260259354,mol/L
CCN(CCCl)c1ccc(C=O)cc1,water,298,-3.033448375,mol/L
C[C@]12CC[C@H]3[C@@H](CCC4=CC(=O)CC[C@H]34)[C@@H]1CCC2=O,water,298,-3.14612102,mol/L
CCC(=O)OCCC(C)C,water,298,-2.870073641,mol/L
CC(=C)[C@@H]1C[C@@H](CC[C@@]1(C)C=C)C(C)(C)O,water,298,-3.059278372,mol/L
[OH-].[Cr+3].CCCCC(CC)COCCCN.CC(=O)\C(=N/Nc1cc(cc(c1[O-])[S]([O-])(=O)=O)[N+]([O-])=O)C(=O)[N-]c2ccccc2.[H+],water,298,-3.542587387,mol/L
CCCCCC(O)C=C,water,298,-1.821931715,mol/L
FC(F)=C(F)C(F)(F)F,water,298,-2.888798283,mol/L
CC=C(C)C,water,298,-2.560377492,mol/L
[Cu],water,298,-2.519719137,mol/L
CC[C@]12CC[C@H]3[C@@H](CCc4cc(OC)ccc34)[C@@H]1CC[C@@H]2O,water,298,-4.875700653,mol/L
CC(C)(C1CCC(O)CC1)C2CCC(O)CC2,water,298,-3.097609749,mol/L
COCCOCCO[Si](CCCOCC1CO1)(OCCOCCOC)OCCOCCOC,water,298,1.582313338,mol/L
CCNc1nc(NC(C)C)nc(SC)n1,water,298,-3.075636757,mol/L
C[C@]12CC[C@H]3[C@@H](CCC4=CC(=O)CC[C@H]34)[C@@H]1CCC2=O,water,298,-3.154154604,mol/L
OC(=O)c1ccccc1C(O)=O,water,298,-0.941699693,mol/L
[Na+].[Na+].[O-][S](=O)(=O)c1ccc(N\N=C2\C(=O)C=Cc3cc(ccc23)[S]([O-])(=O)=O)cc1,water,298,-1.376746915,mol/L
CC(F)(F)Cl,water,298,-1.723390854,mol/L
COC(=O)c1cc(cc(c1)[N+]([O-])=O)C(O)=O,water,298,-2.073729924,mol/L
FCF,water,298,-1.437441792,mol/L
CC(CN\C=C/1C=CC=CC1=O)N\C=C/2C=CC=CC2=O,water,298,-3.172023424,mol/L
[Mg++].CCCCCCCCCc1cc2ccccc2c(c1CCCCCCCCC)[S]([O-])(=O)=O.CCCCCCCCCc3cc4ccccc4c(c3CCCCCCCCC)[S]([O-])(=O)=O,water,298,-4.674472917,mol/L
CC1(C)[C@H]2CC[C@]1(C)C(C2)OC(=O)C=C,water,298,-4.022026165,mol/L
CC(C)Oc1ccc(cc1)[S](=O)(=O)c2ccc(O)cc2,water,298,-4.171445785,mol/L
[O--].[O--].[O--].[Sb+3].[Sb+3],water,298,-4.17019766,mol/L
C[Si](C)(C)C,water,298,-3.653340518,mol/L
Oc1cc(Cl)ccc1Oc2ccc(Cl)cc2,water,298,-4.116675847,mol/L
Clc1cc(c(Cl)cc1c2[nH]c3ccc4C(=O)c5ccccc5C(=O)c4c3n2)c6[nH]c7ccc8C(=O)c9ccccc9C(=O)c8c7n6,water,298,-4.524775941,mol/L
CC(CCOC(C)=O)CC(C)(C)C,water,298,-3.989167832,mol/L
CCCCCCCCCCCCCCCCN(C)C,water,298,-4.151832563,mol/L
ClC(=O)c1ccc(cc1)C(Cl)=O,water,298,-4.028793779,mol/L
CC(=C)C(=O)OCC1CCCO1,water,298,-0.952455004,mol/L
C[C@]12CC[C@H]3[C@@H](CCC4=CC(=O)CC[C@H]34)[C@@H]1CCC2=O,water,298,-3.156500662,mol/L
CC(=C)C(=O)OCc1ccccc1,water,298,-2.968204541,mol/L
[O-][N+](=O)c1ccc(Cl)cc1Cl,water,298,-1.009145641,mol/L
CCOC(=O)OCC,water,298,-0.798209708,mol/L
C[C@]12CC[C@H]3[C@@H](CCC4=CC(=O)CC[C@H]34)[C@@H]1CCC2=O,water,298,-3.160845355,mol/L
C/C=C/C(=O)C1=C(C)C=CCC1(C)C,water,298,-3.005248988,mol/L
[O-][N+](=O)c1ccc(Cl)cc1Cl,water,298,-3.009145641,mol/L
CC(=C)[C@H]1CC=C(C)C(=O)C1,water,298,-1.90265366,mol/L
CCCCCCCC[P](O)(O)=O,water,298,-3.014809552,mol/L
C[C@]12CCC(=O)C=C1CC[C@@H]3[C@@H]2CC[C@@]4(C)[C@H]3C(O)CC4=O,water,298,-2.213096942,mol/L
COc1cc(Cl)c(OC)cc1N,water,298,-3.006121292,mol/L
[Pb],water,298,-3.049218023,mol/L
[OH-].[OH-].[Ca++],water,298,-1.603798487,mol/L
CCCC(=O)OCCC(C)C,water,298,-2.932852123,mol/L
O[S](=O)(=O)CCCNC1CCCCC1,water,298,-3.080206763,mol/L
NC(CCCN=C(N)N)C(O)=O,water,298,0.019013265,mol/L
C=CCOC(=O)c1ccccc1C(=O)OCC=C,water,298,-3.131326014,mol/L
CCCCNC(=O)OCC#CI,water,298,-3.188778643,mol/L
CCCCC/C(C=O)=C/c1ccccc1,water,298,-3.046658418,mol/L
Cc1ccccc1C,water,298,-2.768315061,mol/L
Cc1cccc(C)c1,water,298,-2.768315061,mol/L
Cc1ccc(C)cc1,water,298,-2.768315061,mol/L
ClCCCBr,water,298,-1.940151412,mol/L
OC(O)C(Cl)(Cl)Cl,water,298,1.037167298,mol/L
[Na+].[Na+].COc1cc(c(C)cc1N\N=C2\C(=O)C=Cc3cc(ccc23)[S]([O-])(=O)=O)[S]([O-])(=O)=O,water,298,-0.440585514,mol/L
OC(=O)c1cccnc1,water,298,0.164975646,mol/L
OC(=O)c1ccccc1O,water,298,-1.884990353,mol/L
Cc1ccc(N)cc1[S](O)(=O)=O,water,298,-2.017079736,mol/L
OC(=O)c1cc(O)cc(c1)C(O)=O,water,298,-2.005111367,mol/L
[Na+].[Na+].[O-][S](=O)(=O)c1cc(Nc2nc(Nc3ccccc3)nc(n2)N4CCOCC4)ccc1/C=C/c5ccc(Nc6nc(Nc7ccccc7)nc(n6)N8CCOCC8)cc5[S]([O-])(=O)=O,water,298,-2.710838239,mol/L
CC(C)OC(=O)CCCCC(=O)OC(C)C,water,298,-3.107028976,mol/L
CCCCCC1(C)CCC(C)(C)C1=O,water,298,-4.016533711,mol/L
OC1CCCCCCCCCCC1,water,298,-3.989117726,mol/L
OCCC(F)(F)C(F)(F)C(F)(F)C(F)(F)C(F)(F)C(F)(F)F,water,298,-4.287064023,mol/L
CC1(C)CNCC(C)(C)C1OC(=O)CCCCCCCCC(=O)OC2C(C)(C)CNCC2(C)C,water,298,-4.40774699,mol/L
CC(CCCC(C)(C)OC(C)=O)C=C,water,298,-4.030164126,mol/L
[Ca++].[O-][Mo]([O-])(=O)=O,water,298,-4.03553506,mol/L
CC(C)COC(=O)C1CCCCC1C(=O)OCC(C)C,water,298,-4.19123514,mol/L
[Zn++].CCCCCCCCCc1cc2ccccc2c(c1CCCCCCCCC)[S]([O-])(=O)=O.CCCCCCCCCc3cc4ccccc4c(c3CCCCCCCCC)[S]([O-])(=O)=O,water,298,-4.730669398,mol/L
CC1CC(CC(C)(C)C1)OC(=O)C=C,water,298,-4.030447085,mol/L
O=C(C1CCCCC1)c2ccccc2,water,298,-4.014709735,mol/L
CC(C)COc1ccc2ccccc2c1,water,298,-4.043961176,mol/L
[Na+].CC(=O)Nc1cccc(Nc2cc(c(N)c3C(=O)c4ccccc4C(=O)c23)[S]([O-])(=O)=O)c1,water,298,-4.417588208,mol/L
ClCC(CCl)O[P](=O)(OC(CCl)CCl)OC(CCl)CCl,water,298,-4.376704974,mol/L
Clc1cccc(Cl)c1Cl,water,298,-4.003482074,mol/L
[Ca++].CC(=O)C(N=Nc1ccc(cc1[N+]([O-])=O)[S]([O-])(=O)=O)C(=O)Nc2ccccc2.CC(=O)C(N=Nc3ccc(cc3[N+]([O-])=O)[S]([O-])(=O)=O)C(=O)Nc4ccccc4,water,298,-4.674562122,mol/L
COC(=O)c1c(C)cc(O)c(C)c1O,water,298,-4.037430925,mol/L
O(c1ccccc1)c2ccccc2,water,298,-3.975715118,mol/L
[Na+].[I-],water,298,1.07779604,mol/L
[H+].[H+].[Cl-].[Cl-].Nc1ccc(cc1Cl)c2ccc(N)c(Cl)c2,water,298,-3.26286953,mol/L
CC(C)C(=O)OCCc1ccccc1,water,298,-3.035911154,mol/L
CC(C)C1(O)CCC(=CC1)C,water,298,-1.94099707,mol/L
F[B-](F)(F)F.F[B-](F)(F)F.F[N+]12CC[N+](CCl)(CC1)CC2,water,298,-0.303811902,mol/L
COc1ccc(OC)c(c1)[N+]([O-])=O,water,298,-3.01732508,mol/L
CCCCNC(=O)OCC#CI,water,298,-3.203337363,mol/L
OC(=O)Cc1ccc(O)cc1,water,298,-0.944222999,mol/L
[OH-].[OH-].[Ca++],water,298,-1.632982219,mol/L
ClCCOCCCl,water,298,-0.91984707,mol/L
[O-][N+](=O)C1=NC(=O)NN1,water,298,-0.87862532,mol/L
Cc1cc2NC(=O)Nc2cc1N,water,298,-1.977138482,mol/L
[O-][N+](=O)c1ccc(Cl)cc1Cl,water,298,-3.047775044,mol/L
CC(=O)c1cccc(N)c1,water,298,-0.896856644,mol/L
Cc1ccccc1C,water,298,-2.792997526,mol/L
Cc1cccc(C)c1,water,298,-2.792997526,mol/L
Cc1ccc(C)cc1,water,298,-2.792997526,mol/L
CC(C)(C)OOC(C)(C)C,water,298,-2.93204037,mol/L
CCOC(=O)\C=C\c1ccccc1,water,298,-3.013046764,mol/L
[Na+].Cc1ccc(Nc2ccc(O)c3C(=O)c4ccccc4C(=O)c23)c(c1)[S]([O-])(=O)=O,water,298,-2.402393281,mol/L
O=C1NSc2ccccc12,water,298,-1.947289546,mol/L
CCN(CC)CC,water,298,0.22529845,mol/L
Cc1ccccc1C,water,298,-2.794269253,mol/L
Cc1cccc(C)c1,water,298,-2.794269253,mol/L
Cc1ccc(C)cc1,water,298,-2.794269253,mol/L
CCOc1ccc2NC(C)(C)C=C(C)c2c1,water,298,-3.106634787,mol/L
CSc1ccc(cc1)C(=O)C(C)(C)N2CCOCC2,water,298,-4.193381143,mol/L
[Na+].CC(=O)Nc1cccc(Nc2cc(c(N)c3C(=O)c4ccccc4C(=O)c23)[S]([O-])(=O)=O)c1,water,298,-4.422413752,mol/L
CC1(C)C2CCC3(C2)C1C(=O)CCC3(C)C,water,298,-4.097612213,mol/L
CCCCC(CC)C(=O)OOC(C)(C)CC,water,298,-4.116871778,mol/L
CCC(C)c1ccccc1,water,298,-3.882311038,mol/L
C[C@]12CC[C@H]3[C@@H](CC=C4C[C@@H](O)CC[C@]34C)[C@@H]1CCC2=O,water,298,-4.217003887,mol/L
COC1(CCCCCCCCCCC1)OC,water,298,-4.125654352,mol/L
CCc1ccc(CC)cc1,water,298,-3.897374784,mol/L
CC(=O)/C=C/C1=C(C)CCCC1(C)C,water,298,-3.055521845,mol/L
FC(F)=C(F)C(F)(F)F,water,298,-2.948008448,mol/L
CCc1ccccc1,water,298,-2.798106932,mol/L
[OH-].[OH-].[Ca++],water,298,-1.644462036,mol/L
CCCCNC(=O)OCC#CI,water,298,-3.223540749,mol/L
[O-][N+](=O)c1ccc(Cl)cc1C(F)(F)F,water,298,-3.127939326,mol/L
S=C1NN=C(SSC2=NNC(=S)S2)S1,water,298,-3.252213315,mol/L
CCCCCCCC(C)=O,water,298,-2.930311379,mol/L
Cc1ccc(cc1[N+]([O-])=O)[N+]([O-])=O,water,298,-3.040285322,mol/L
[Zn++].CC(C)CO[P]([S-])(=S)OCC(C)C.CC(C)CO[P]([S-])(=S)OCC(C)C,water,298,-2.519248335,mol/L
FC(F)=C,water,298,-2.588926688,mol/L
Oc1cccc2c(O)cccc12,water,298,-2.987102654,mol/L
OCCCNc1ccc(O)cc1[N+]([O-])=O,water,298,-2.11058971,mol/L
O=C1OC(=O)c2ccccc12,water,298,-0.955761059,mol/L
CCCCCC1CC(=O)C=C(C)C1C(=O)OCC,water,298,-3.187166345,mol/L
O=C1NSc2ccccc12,water,298,-1.967069106,mol/L
CSc1cc(SC)c(N)c(C)c1N,water,298,-3.121626708,mol/L
[Cl-].C[N+](C)(C)c1ccc2C=CC(=O)C(=N/Nc3ccc(N)c(c3)[N+]([O-])=O)\c2c1,water,298,-1.39724242,mol/L
Cc1ccccc1C,water,298,-2.81916776,mol/L
Cc1cccc(C)c1,water,298,-2.81916776,mol/L
Cc1ccc(C)cc1,water,298,-2.81916776,mol/L
[OH-].[Cr+3].CCCCC(CC)COCCCN.CC(=O)\C(=N/Nc1cc(cc(c1[O-])[S]([O-])(=O)=O)[N+]([O-])=O)C(=O)[N-]c2ccccc2.[H+],water,298,-3.623563241,mol/L
O=C1NC(=O)C2=C1CCCC2,water,298,-1.974517726,mol/L
OC(=O)Cc1ccc(O)cc1,water,298,0.02185088,mol/L
CC(C)C(=O)OCCc1ccccc1,water,298,-3.079764438,mol/L
CC(=O)/C=C/C1=C(C)CCCC1(C)C,water,298,-3.079863818,mol/L
C1CC=CC1,water,298,-2.629148281,mol/L
CCCCCCC(C)(C)S,water,298,-3.977117253,mol/L
CCCCCCCCCCN(C)C,water,298,-4.045287835,mol/L
CCOC(=O)CCS[P](=S)(OC(C)C)OC(C)C,water,298,-4.274778498,mol/L
CCCCCCC(C)(C)S,water,298,-3.984895869,mol/L
O=CCC\C=C1/CC2CC1C3CCCC23,water,298,-4.090187913,mol/L
CCCCCCC(C)(C)S,water,298,-3.990160109,mol/L
CC(CCOC=O)CCC=C(C)C,water,298,-4.055960832,mol/L
CCCS[P](=O)(OCC)Oc1ccc(Br)cc1Cl,water,298,-4.365622838,mol/L
[Zn++].CCCCCCCCCc1cc2ccccc2c(c1CCCCCCCCC)[S]([O-])(=O)=O.CCCCCCCCCc3cc4ccccc4c(c3CCCCCCCCC)[S]([O-])(=O)=O,water,298,-4.788424219,mol/L
CC(=O)C(\C)=C/C1C(=CCCC1(C)C)C,water,298,-4.110440291,mol/L
Clc1cccc(Cl)c1Cl,water,298,-4.054634596,mol/L
O=C1CCCCCCCCCCCC(=O)OCCO1,water,298,-4.227836912,mol/L
CCCCCCCCC(C)C=O,water,298,-4.027084465,mol/L
COC(=O)C1CC(=O)C(CC1=O)C(=O)OC,water,298,-4.154195657,mol/L
CC1CO1.CC(C)(c2ccc(O)cc2)c3ccc(O)cc3.ClCC4CO4,water,298,-4.374400038,mol/L
[Zn++].[O-][Se]([O-])=O,water,298,-4.079965434,mol/L
CN1COCN=C1N[N+]([O-])=O,water,298,-1.002292328,mol/L
OCC1OC(C(O)C1O)n2cnc3C(=O)N=CNc23,water,298,-1.229848644,mol/L
Cc1ccc(C)c(O)c1C,water,298,-1.935500888,mol/L
FCF,water,298,-1.520295741,mol/L
Cc1ccccc1C,water,298,-2.832869038,mol/L
Cc1cccc(C)c1,water,298,-2.832869038,mol/L
Cc1ccc(C)cc1,water,298,-2.832869038,mol/L
C1CCCC1,water,298,-2.652810203,mol/L
CCCCCCCC(=O)NCC(O)=O,water,298,-2.111537593,mol/L
CC(=O)OC1C(C)(C)C2CCC1(C)C2,water,298,-3.874596884,mol/L
O=[Si]=O,water,298,-3.602667578,mol/L
[OH-].[Cr+3].CCCCC(CC)COCCCN.CC(=O)\C(=N/Nc1cc(cc(c1[O-])[S]([O-])(=O)=O)[N+]([O-])=O)C(=O)[N-]c2ccccc2.[H+],water,298,-3.648545529,mol/L
OC(=O)[C@@H](NC(=O)OCc1ccccc1)C2CCCCC2,water,298,-3.285433603,mol/L
CC1=C(/C=C/C(C)(O)C=C)C(C)(C)CCC1,water,298,-3.164147933,mol/L
CCCCCC#CC(=O)OC,water,298,-3.009132774,mol/L
Cc1cccc(N)c1,water,298,-0.853867332,mol/L
[Mn++].[O-]P=O.[O-]P=O,water,298,-0.081304092,mol/L
Cc1cccc(N)c1,water,298,-0.853925235,mol/L
COC=C,water,298,-0.587935349,mol/L
CCN(CC)CC,water,298,-0.829059212,mol/L
CC(Cl)(Cl)Cl,water,298,-1.949080848,mol/L
CCN(CC)c1cccc(O)c1,water,298,-2.042013414,mol/L
O=C1NC(=O)NC(=O)N1,water,298,-1.934750875,mol/L
CCCCCC(O)CC,water,298,-1.938623116,mol/L
Cc1cccc(c1C)[N+]([O-])=O,water,298,-3.003359989,mol/L
Cc1ccc(cc1[N+]([O-])=O)[N+]([O-])=O,water,298,-3.084302151,mol/L
CCCCCCCCCC(O)=O,water,298,-3.060113353,mol/L
Oc1ccccc1C(=O)Oc2ccccc2,water,298,-3.154768756,mol/L
ClC(Cl)=C(Cl)Cl,water,298,-3.043582317,mol/L
COc1ccc2cc(ccc2c1)C(C)C(O)=O,water,298,-4.160827034,mol/L
CC(CCOC(C)=O)CCC=C(C)C,water,298,-4.09593873,mol/L
FC(F)(F)C(F)(F)C(F)(F)C(F)(F)C=C,water,298,-4.197937601,mol/L
O=C(Cc1ccccc1)OCCc2ccccc2,water,298,-4.188747793,mol/L
[Zn++].CCCCCCCCCc1cc2ccccc2c(c1CCCCCCCCC)[S]([O-])(=O)=O.CCCCCCCCCc3cc4ccccc4c(c3CCCCCCCCC)[S]([O-])(=O)=O,water,298,-4.814093277,mol/L
CCC(COCC(CC)(COC(=O)C=C)COC(=O)C=C)(COC(=O)C=C)COC(=O)C=C,water,298,-4.492785524,mol/L
ClC(=O)c1ccc(cc1)C(Cl)=O,water,298,-4.131456121,mol/L
C=CC(=O)OCCN1C(=O)N(CCOC(=O)C=C)C(=O)N(CCOC(=O)C=C)C1=O,water,298,-2.451419462,mol/L
COc1ccc(C=O)cc1OC,water,298,-1.046974162,mol/L
CCCCCCCC(O)=O.OCC(O)CO,water,298,-3.200000781,mol/L
CC(C)c1ccc(cc1)C#N,water,298,-2.988795303,mol/L