Solute,Solvent,Temperature_K,Solubility,Units
CCCC(CCC)(C(=O)NO)C1=CC=CC=C1,water,298,-2.89,mol/L
CC1=CC(C)=C(CC(C)(C)C(=O)NO)C(C)=C1,water,298,-3.52,mol/L
CN(CC(=O)O)C(=S)SCC1=CC=CC=C1,water,298,-3.23,mol/L
CCC1(CC)C(=O)N(C)N(C2=CC=CC=C2)C1=O,water,298,-2.69,mol/L
COC1=CC(=C(C=C1)OC)[N+](=O)[O-],water,298,-3.12,mol/L
CCCOC(=O)C1=C(C(=O)OCCC)C=CC=C1,water,298,-3.82,mol/L
CCCCCCCOC(=O)C1=C(C(=O)OCCCCCCC)C=CC=C1,water,298,-8.56,mol/L
CC1CC2C(C(O)CC3(C)C2CCC3(O)C(=O)CO)C2(C)C=CC(=O)C=C12,water,298,-6.37,mol/L
CCCCCCCCNCC(O)CO,water,298,-2.22,mol/L
CCCCCCCCCNCC(O)CO,water,298,-2.64,mol/L
CCCCCCCCCCNCC(O)CO,water,298,-3.11,mol/L
CNCC(O)C1=CC(O)=C(O)C=C1,water,298,-0.96,mol/L
CC(C)(NC(=O)C1=CC=CC=C1)C(N)=O,water,298,-1.62,mol/L
CN(C)C(=O)C1=C(C(=O)N(C)C)C=CC=C1,water,298,0.51,mol/L
O=C(O)CCC(=O)C1=CC=C(C2=CC=CC=C2)C=C1,water,298,-5.06,mol/L
CCOC(=O)C1=C(C(=O)C2=CC=CC=C2)C=CC=C1,water,298,-3.41,mol/L
CC(C)CCC1(CCO)C(=O)NC(=S)NC1=O,water,298,-2.56,mol/L
CCCCCC1(CCO)C(=O)NC(=S)NC1=O,water,298,-2.38,mol/L
O=C(O)CN1C(=O)NC(=O)C1CC1=CC=CC=C1,water,298,-1.79,mol/L
CN(C)C(=O)C1=CC=C(C(=O)N(C)C)C=C1,water,298,0.27,mol/L
CS(=O)(=O)NC1=C(C=C(C=C1)[N+](=O)[O-])OC2=CC=CC=C2,water,298,-4.49,mol/L
NC1=CC=C(S(=O)(=O)NC2=NN=CS2)C=C1,water,298,-2.87,mol/L
COC1=C(Cl)C(Cl)=C(Cl)C=C1O,water,298,-2.87,mol/L
NC(=O)NC1(O)NC(=O)NC1(O)C(=O)O,water,298,-0.37,mol/L
CCCC(C)CC1(CCO)C(=O)NC(=S)NC1=O,water,298,-3.09,mol/L
CCC(CC)CC1(CCO)C(=O)NC(=S)NC1=O,water,298,-3.14,mol/L
CC1=CC=NC(NS(=O)(=O)C2=CC=C(N)C=C2)=N1,water,298,-0.64,mol/L
NC1=CC=C(S(=O)(=O)NC2=CN=C(I)C=C2)C=C1,water,298,-1.81,mol/L
CC1=C(NC(N)=O)C(=O)N(C2=CC=CC=C2)N1C,water,298,-1.52,mol/L
CC12CCC3C4=C(C=C(O)C=C4)CCC3C1CC(O)C2O,water,298,-4.0,mol/L
CC12C=CC(=O)C=C1CCC1C2CCC2(C)C(=O)CCC12,water,298,-2.79,mol/L
COC1=CC(Cl)=C(Cl)C(Cl)=C1O,water,298,-3.66,mol/L
CN1C(=O)NC(=O)C(C)(C2=CCCCC2)C1=O,water,298,-2.91,mol/L
CC(=O)C(OC1=C(Cl)C=CC=C1)C(=O)O,water,298,-2.1,mol/L
CC1=NN=C(NS(=O)(=O)C2=CC=C(N)C=C2)S1,water,298,-4.45,mol/L
O=C1C=CC2=C(C=CC=C2)C1=NO,water,298,-2.94,mol/L
COC1=CC(Cl)=C(Cl)C(Cl)=C1OC,water,298,-4.37,mol/L
CC(=O)NC1=CC2=C(C=C1)N=C(S(N)(=O)=O)S2,water,298,-3.16,mol/L
CN1C2=C(C=CC=C2)C(O)(C2=CC=CC=C2)C2=C1C=CC=C2,water,298,-3.9,mol/L
O=C(O)C1=C(C(=O)OCCO)C=CC=C1,water,298,-1.48,mol/L
O=C(O)CSC(CC(=O)O)C1=CC=CC=C1,water,298,-1.55,mol/L
COC1=CC(C(=O)C=CC2=CC=CC=C2)=C(O)C=C1,water,298,-6.0,mol/L
CCC1(C2=CCCCCC2)C(=O)NC(=O)NC1=O,water,298,-3.0,mol/L
CC1=CC(C)=NC(NS(=O)(=O)C2=CC=C(N)C=C2)=N1,water,298,-2.27,mol/L
CC1=NC(C)=NC(NS(=O)(=O)C2=CC=C(N)C=C2)=C1,water,298,-2.32,mol/L
CC1=C(C)N=C(NS(=O)(=O)C2=CC=C(N)C=C2)N=C1,water,298,-3.14,mol/L
COC(=O)C1=CC(Br)=C(O)C=C1,water,298,-3.17,mol/L
CCC1=NN=C(NS(=O)(=O)C2=CC=C(N)C=C2)S1,water,298,-3.12,mol/L
CC(CCC(=O)O)NC(=O)C1=CC=CC=C1,water,298,-1.64,mol/L
O=C(O)C1=C(C(=O)OCCOC(=O)C2=C(C(=O)O)C=CC=C2)C=CC=C1,water,298,-2.83,mol/L
CC1=NOC(NS(=O)(=O)C2=CC=C(N)C=C2)=C1C,water,298,-1.88,mol/L
CC(=O)NC1=C(F)C=C(C)C=C1,water,298,-1.74,mol/L
CC(=O)NC1=C(C)C=C(F)C=C1,water,298,-1.36,mol/L
COc1cc(c2COC(=O)c2c1OC)[N+]([O-])=O,water,298,-3.21,mol/L
COC(=O)C1=CC(Cl)=C(O)C=C1,water,298,-2.87,mol/L
CC(=O)CC(C)=NC1=CC=C(O)C=C1,water,298,-3.59,mol/L
O=C(NCCO)C1=C(O)C=CC(O)=C1,water,298,-0.54,mol/L
CCC1(CC)C(=O)N(C2=CC=CC=C2)N=C1OC(C)=O,water,298,-3.54,mol/L
O=C(O)CCC(=O)C1=CC=C2C=CC=CC2=C1,water,298,-3.85,mol/L
COC(=O)C1=CC(O)=C(OC)C(O)=C1,water,298,-1.6,mol/L
NC1=CC=C2C(O)=CC=CC2=C1S(=O)(=O)O,water,298,-2.06,mol/L
O=C(O)CC1=C(O)C=CC(O)=C1,water,298,0.71,mol/L
CC(=O)NC1=CC=C(S(=O)(=O)NC2=CC=CC=N2)C=C1,water,298,-3.72,mol/L
CN(C)C1=CC=CC(S(=O)(=O)O)=C1,water,298,0.3,mol/L
COC1=C(C(=O)O)C=CC=C1C(=O)O,water,298,-2.29,mol/L
NC1=CC2=C(S(=O)(=O)O)C=CC=C2C=C1,water,298,-2.54,mol/L
NC1=CC2=C(C=C1)C(S(=O)(=O)O)=CC=C2,water,298,-2.75,mol/L
CC(=O)NC(CC1=CC=C(O)C=C1)C(=O)O,water,298,0.01,mol/L
NS(=O)(=O)C1=CC=CC(S(N)(=O)=O)=C1,water,298,-2.17,mol/L
CC1=CC=C(S(=O)(=O)OC2=C(C)C=CC=C2)C=C1,water,298,-3.94,mol/L
NCC(=O)NC(CC1=CC=C(O)C=C1)C(=O)O,water,298,-0.73,mol/L
COC1=CC2=C(N=CC=C2)C(NC(=O)C2=CN=CC=C2)=C1,water,298,-4.45,mol/L
CC(=O)CC(C)=NC1=C(O)C=CC=C1,water,298,-3.55,mol/L
CCOC1=C(C=C(C=C1)[N+](=O)[O-])N,water,298,-3.21,mol/L
CCCCCOC(=O)C1=CC=C(O)C=C1,water,298,-3.81,mol/L
CCCCCCOC(=O)C1=CC=C(O)C=C1,water,298,-3.95,mol/L
NC(=O)C1=CC=CC(S(N)(=O)=O)=C1,water,298,-2.16,mol/L
NC1=C(C=NC2=C(O)C=CC=C2)C=CC=C1,water,298,-3.64,mol/L
CCCCCCCOC(=O)C1=CC=C(O)C=C1,water,298,-4.07,mol/L
COS(=O)(=O)C1=CC=C(C(=O)O)C=C1,water,298,-3.05,mol/L
NC1=C(C(=O)OCC=CC2=CC=CC=C2)C=CC=C1,water,298,-6.04,mol/L
NC(C(=O)NCC(=O)O)C1=CC=CC=C1,water,298,-1.41,mol/L
CCOP(=S)(OCC)OC1=CC(C)=NC(C(C)C)=N1,water,298,-3.88,mol/L
CC(=O)CC(C)=NC1=CC=C(N=C(C)CC(C)=O)C=C1,water,298,-1.89,mol/L
O=C1NC=NC2=C1N=C(C1=CC=CC=C1)C(C1=CC=CC=C1)=N2,water,298,-3.18,mol/L
CCCCOC1=CC(C(=O)NCCN(CC)CC)=C2C=CC=CC2=N1,water,298,-3.91,mol/L
O=C(O)CN(C(=S)SCC1=CC=CC=C1)C1=CC=CC=C1,water,298,-3.92,mol/L
CC(C)C1=NN=C(NS(=O)(=O)C2=CC=C(N)C=C2)S1,water,298,-3.41,mol/L
CCCC1=NN=C(NS(=O)(=O)C2=CC=C(N)C=C2)S1,water,298,-3.31,mol/L
COC(=O)C(CC1=CC=CC=C1)NC(=O)C(CC(=O)O)NC(=O)C(F)(F)F,water,298,-2.66,mol/L
NC1=CC(=O)C(=O)C2=C1C=CC=C2,water,298,-3.84,mol/L
CCCCCCCCOC(=O)C1=CC=C(O)C=C1,water,298,-4.22,mol/L
O=C(O)CCP(=O)(O)C1=CC=CC=C1,water,298,-3.08,mol/L
CC(=O)NC1=CC2=C(C=C1)C1=C(C=CC=C1)C2,water,298,-4.24,mol/L
CC(=O)NC1=C(C=CC(=C1)Cl)[N+](=O)[O-],water,298,-0.99,mol/L
N#CCCNC(CC1=CC=CC=C1)C(=O)O,water,298,-1.49,mol/L
CCCN(CCC)S(=O)(=O)C1=CC=C(C(=O)O)C=C1,water,298,-4.02,mol/L
COC(=O)C1=CC(I)=C(O)C=C1,water,298,-3.31,mol/L
CCOC(=O)C1=CC(Cl)=C(O)C=C1,water,298,-3.22,mol/L
CCOC(=O)C1=CC(I)=C(O)C=C1,water,298,-3.49,mol/L
CCCOC(=O)C1=CC(I)=C(O)C=C1,water,298,-3.69,mol/L
CCNC(=O)NC1=C(C)N(C)N(C2=CC=CC=C2)C1=O,water,298,-1.83,mol/L
NC(=O)C1=CC=C(S(N)(=O)=O)C=C1,water,298,-2.3,mol/L
CCCCOC(=O)C1=CC(I)=C(O)C=C1,water,298,-3.9,mol/L
CC(C)CC1=NN=C(NS(=O)(=O)C2=CC=C(N)C=C2)S1,water,298,-3.82,mol/L
CC1=CC=C(C(=O)N(O)C2=CC=C(Cl)C=C2)C=C1,water,298,-4.42,mol/L
O=C(C1=C(Cl)C=C(Cl)C=C1)N(O)C1=CC=CC=C1,water,298,-3.67,mol/L
CCCCOCN(C(=O)CCl)C1=C(CC)C=CC=C1CC,water,298,-4.19,mol/L
O=C(O)C1=CC=C(P(=O)(C2=CC=CC=C2)C2=CC=C(C(=O)O)C=C2)C=C1,water,298,-6.01,mol/L
NS(=O)(=O)C1=C(C2=NC3=C(C=CC=C3)C(=O)N2)C=CC=C1,water,298,-3.08,mol/L
CC(C)=NNC(=O)NC1C2=C(C=CC=C2)OC2=C1C=CC=C2,water,298,-4.17,mol/L
NC1C(O)C(O)C(O)C(O)C1O,water,298,-1.41,mol/L
O=C(O)C=CC(=O)NC1=CC=CC=C1,water,298,-2.72,mol/L
O=C(O)C1=CC=C(P(=O)(O)C2=CC=CC=C2)C=C1,water,298,-4.07,mol/L
CC(=O)NC1=CC=C(S(=O)(=O)NC2=NC(C)=CS2)C=C1,water,298,-4.15,mol/L
CCC1=CC=CC(CC)=C1N(COC)C(=O)CCl,water,298,-3.05,mol/L
NC1=CC=C(S(=O)(=O)NC2=NC3=C(C=N2)CCCC3)C=C1,water,298,-3.65,mol/L
CN1C(=O)C(CC2=CC=C(O)C=C2)N(CC(=O)O)C1=O,water,298,-0.05,mol/L
CC(C)CC(N)C(=O)NC(CC1=CC=C(O)C=C1)C(=O)O,water,298,-1.58,mol/L
CN(C)CCNC(=O)NC1CCCCC1,water,298,-0.66,mol/L
CCN(CC)CC(C)OC(=O)C1=CC=C(N)C=C1,water,298,-2.35,mol/L
CCN(CC)C(C)COC(=O)C1=CC=C(N)C=C1,water,298,-2.38,mol/L
CC(C)CC(NC(=O)C(N)CC1=CC=C(O)C=C1)C(=O)O,water,298,-2.07,mol/L
CC12CCC(=O)C=C1CCC1C3CCC(O)(C(=O)CO)C3(C)CC(O)C12F,water,298,-1.49,mol/L
CCCCNC(=O)NC1=C(C)N(C)N(C2=CC=CC=C2)C1=O,water,298,-1.63,mol/L
NC(=O)SCC(=O)NC1=CC=CC=C1,water,298,-1.32,mol/L
C1=COC(=C1)C(=O)C2=NO[N+](=C2C(=O)C3=CC=CO3)[O-],water,298,-3.85,mol/L
O=C(O)CC(O)(CC(=O)O)C(=O)NC1=CC=CC=C1,water,298,-0.48,mol/L
CC1C(=O)CCC2C(O)CCC(O)C12,water,298,-0.3,mol/L
CC(C)C1CCC(=NO)C(=NO)C1,water,298,-2.39,mol/L
CCC(C)(C)C1CCC(=NO)C(=NO)C1,water,298,-3.97,mol/L
CC(C)(C)CC(C)(C)C1CC/C(=N/O)/C(=N\O)/C1,water,298,-6.41,mol/L
CNC(CC1=CC(O)=C(O)C=C1)C(=O)O,water,298,-1.02,mol/L
O=C(C1=CC=CC2=C1C=CC=C2)N(O)C1=CC=CC=C1,water,298,-3.94,mol/L
CC(=O)NC(CSC1=CC(Cl)=C(Cl)C=C1)C(=O)O,water,298,-2.89,mol/L
C1=CC(=CC=C1NC(=O)NCCC(=O)O)[N+](=O)[O-],water,298,-2.7,mol/L
CC(=O)NC(CSC1=C(Cl)C=CC=C1Cl)C(=O)O,water,298,-2.31,mol/L
N#CCCN(CCC#N)C(CC1=CC=C(O)C=C1)C(=O)O,water,298,-1.68,mol/L
CC12CCC(=O)C=C1CCC1C2CCC2(C)C(OC(=O)CCC(=O)O)CCC12,water,298,-5.08,mol/L
CC1CC2C3CCC4=CC(=O)C=CC4(C)C3(F)C(O)CC2(C)C1(O)C(=O)CO,water,298,-3.85,mol/L
O=C(O)CN1C(=O)N(C2=CC=CC=C2)C(=O)C1CC1=CC=CC=C1,water,298,-2.91,mol/L
CC1(C)C(=O)C(=O)C2CCC1C2,water,298,-1.52,mol/L
CCOC(=O)C(O)C1=CC=CC=C1,water,298,-1.26,mol/L
CC12CCC(CC1=O)C2(C)C(=O)O,water,298,-1.78,mol/L
CC12CCC(C(=NO)C1=NO)C2(C)C,water,298,-2.52,mol/L
CC(C(=O)O)S(=O)(=O)C1=CC=CC=C1,water,298,-0.89,mol/L
CC(O)C(NC(=O)C1=CC=CC=C1)C(=O)O,water,298,-1.23,mol/L
O=C(O)CSC(C(=O)O)C1=CC=CC=C1,water,298,-1.23,mol/L
CC(CC(=O)NC1=CC=CC=C1)C(=O)O,water,298,0.39,mol/L
CCN(CC)C(=O)C(C)OC(=O)C1=CC=CC=C1,water,298,-2.1,mol/L
CC(C(=O)N(C)C)S(=O)(=O)C1=CC=CC=C1,water,298,-0.87,mol/L
COC(C)C(NC(=O)C1=CC=CC=C1)C(=O)O,water,298,-1.74,mol/L
O=C(O)CNC(CC1=CC=CC=C1)C(=O)O,water,298,-2.16,mol/L
CC(OC1=C(Cl)C=C(Cl)C(Cl)=C1)C(=O)O,water,298,-3.55,mol/L
CC(C(=O)O)NC(=O)C1=CC(=CC=C1)[N+](=O)[O-],water,298,-1.8,mol/L
O=C(O)CNC(CC1=CC=C(O)C=C1)C(=O)O,water,298,-2.59,mol/L
CC(=O)C=C(C)NC1CCCCC1NC(C)=CC(C)=O,water,298,-2.11,mol/L
OCC(O)C(O)C(O)C=NN(C1=CC=CC=C1)C1=CC=CC=C1,water,298,-3.1,mol/L
CC(O)C1(O)CCC2C3CCC4=CC(=O)CCC4(C)C3CCC21C,water,298,-4.16,mol/L
CC1=CC=C(C2(O)CCN(CCCC(=O)C3=CC=C(F)C=C3)CC2)C=C1,water,298,-4.35,mol/L
CC(CCC(=O)O)C1CCC2C3CC(O)C4CC(O)CCC4(C)C3CCC12C,water,298,-4.82,mol/L
CC(CCC(=O)O)C1CCC2C3CCC4CC(O)CCC4(C)C3CC(O)C12C,water,298,-3.57,mol/L
CC(CCC(=O)O)C1CCC2C3C(O)CC4CC(O)CCC4(C)C3CCC12C,water,298,-4.81,mol/L
O=C(O)C(SCCSC(C(=O)O)C1=CC=CC=C1)C1=CC=CC=C1,water,298,-3.41,mol/L
NC(CC1=CC=C(O)C=C1)C(=O)NCC(=O)NCC(=O)O,water,298,-1.47,mol/L
CC1=C(NC(=O)NC2=CC=CC=C2)C(=O)N(C2=CC=CC=C2)N1C,water,298,-2.3,mol/L
CCC1(C2=CC=CC=C2)C(=O)NC(=O)N(CC(O)CO)C1=O,water,298,-1.79,mol/L
CC1=C(O)C=CC(C(=O)CC(C)C)=C1,water,298,-1.98,mol/L
CC1CCC(C)C(=NO)C1=NO,water,298,-1.32,mol/L
CCC1CCC(=NO)C(=NO)C1,water,298,-1.83,mol/L
COC1=CC(O)=C(CC=C(C)C)C2=C1C(=O)CC(C1=CC=C(O)C=C1)O2,water,298,-5.44,mol/L
CCOC(=O)C1=CC(Br)=C(O)C=C1,water,298,-3.39,mol/L
NC(=O)CC1=CC=C(C2=CC=CC=C2)C=C1,water,298,-3.33,mol/L
CCCOC(=O)C1=CC(Cl)=C(O)C=C1,water,298,-3.38,mol/L
CCCOC(=O)C1=CC(Br)=C(O)C=C1,water,298,-3.51,mol/L
O=S1(=O)OC(C2=CC=C(O)C=C2)(C2=CC=C(O)C=C2)C2=C1C=CC=C2,water,298,-3.07,mol/L
C=CCOC1=C(C=C(C=C1)[N+](=O)[O-])N,water,298,-2.8,mol/L
COC1=CC=C(N(C)C(N)=O)C=C1,water,298,-1.16,mol/L
CCOP(=S)(OCC)OC1=CC2=C(C=C1)C(C)=C(Cl)C(=O)O2,water,298,-6.24,mol/L
NC(=O)NN=CCOC1CCCCC1,water,298,-1.74,mol/L
CCOC1=CC=C(N(C)C(N)=O)C=C1,water,298,-1.66,mol/L
CCCCOC1=C(C=C(C=C1)[N+](=O)[O-])N,water,298,-3.82,mol/L
COC1=C(S(N)(=O)=O)C=C(C)C=C1,water,298,-1.53,mol/L
CCCCOC(=O)C1=CC(Cl)=C(O)C=C1,water,298,-3.51,mol/L
CCCCOC(=O)C1=CC(Br)=C(O)C=C1,water,298,-3.67,mol/L
CC1=C(OCC(O)=S)C=CC(Cl)=C1,water,298,-3.16,mol/L
CCCCCOC(=O)C1=CC(Cl)=C(O)C=C1,water,298,-3.95,mol/L
CCCCCOC(=O)C1=CC(Br)=C(O)C=C1,water,298,-4.1,mol/L
CCCCCOC(=O)C1=CC(I)=C(O)C=C1,water,298,-4.22,mol/L
CC(C)OC1=C(C=C(C=C1)[N+](=O)[O-])N,water,298,-2.66,mol/L
C1=CC=C(C=C1)C2=C(C=CC(=C2)O)[N+](=O)[O-],water,298,-3.63,mol/L
CC(C(N)=O)S(=O)(=O)C1=CC=CC=C1,water,298,-1.64,mol/L
C1=CC=C(C=C1)C2=C(C(=CC=C2)O)[N+](=O)[O-],water,298,-3.95,mol/L
CCOC1=CC=C(N(CC)C(N)=O)C=C1,water,298,-1.85,mol/L
OC(=S)COC1=C(Cl)C=C(Cl)C=C1,water,298,-2.69,mol/L
CCCCCCOC(=O)C1=CC(Cl)=C(O)C=C1,water,298,-4.09,mol/L
CCCCCCOC(=O)C1=CC(Br)=C(O)C=C1,water,298,-4.22,mol/L
CCCCCCOC(=O)C1=CC(I)=C(O)C=C1,water,298,-4.43,mol/L
COC1=CC=CC(OCC(O)CO)=C1OC,water,298,-3.0,mol/L
COC1=C(O)C(OC)=C(Cl)C(Cl)=C1Cl,water,298,-3.41,mol/L
CN(C)C1=C(C(=O)O)C=C(C(=O)O)C=C1,water,298,-2.02,mol/L
CCCCCCCOC(=O)C1=CC(Cl)=C(O)C=C1,water,298,-4.23,mol/L
CCCCCCCOC(=O)C1=CC(Br)=C(O)C=C1,water,298,-4.42,mol/L
CCCCCCCOC(=O)C1=CC(I)=C(O)C=C1,water,298,-4.56,mol/L
COC1=CC(C(=O)O)=C(C(=O)O)C=C1O,water,298,-1.21,mol/L
O=S(=O)(C1=CC(O)=CC=C1)C1=C(O)C=CC=C1,water,298,-2.29,mol/L
O=S(=O)(C1=CC(O)=CC=C1)C1=CC(O)=CC=C1,water,298,-2.33,mol/L
CS(=O)(=O)NS(=O)(=O)C1CCCCC1,water,298,-0.33,mol/L
CCCCCCCCOC(=O)C1=CC(Cl)=C(O)C=C1,water,298,-4.38,mol/L
CCCCCCCCOC(=O)C1=CC(Br)=C(O)C=C1,water,298,-4.52,mol/L
CCCCCCCCOC(=O)C1=CC(I)=C(O)C=C1,water,298,-4.67,mol/L
CCN(CC)C(C)C(C)OC(=O)C1=CC=C(N)C=C1,water,298,-3.42,mol/L
OC(=S)COC1=C(Cl)C=C(Cl)C(Cl)=C1,water,298,-2.96,mol/L
CC(=O)OC1C(C2COC(C)(C)O2)OC2OC(C)(C)OC21,water,298,-1.52,mol/L
O=C(NC1=CC=CC=C1)C(O)COC1=CC=CC=C1,water,298,-2.41,mol/L
CCOC1=C(C(=O)N(O)C2=CC=CC=C2)C=CC=C1,water,298,-3.37,mol/L
NCCNC1=CC=C(S(=O)(=O)C2=CC=C(N)C=C2)C=C1,water,298,-2.35,mol/L
C1C(CC(=O)C(C1=O)[N+](=O)[O-])C2=CC=CC=C2,water,298,-1.67,mol/L
NC1=CC=C(S(=O)(=O)NC(CO)(CO)CO)C=C1,water,298,-1.4,mol/L
CNC(=N)NS(=O)(=O)C1=CC2=C(C=CC=C2)C=C1,water,298,-3.1,mol/L
CC(C)(NC(=O)C1=CC=CC=C1)C(=O)NCC(=O)O,water,298,-0.56,mol/L
O=C(O)C1=C(N=NC2=CC=C(O)C=C2)C=CC=C1Cl,water,298,-3.0,mol/L
CCOC(=O)CC1=C(C)N=C(NS(=O)(=O)C2=CC=C(N)C=C2)S1,water,298,-2.88,mol/L
CC1=C(NS(=O)(=O)C2=CC=C(N)C=C2)C2=C(C=CC=C2)C=C1,water,298,-4.5,mol/L
CC1=CC=C(NC(=O)C(O)(O)C(=O)NC2=CC=C(C)C=C2)C=C1,water,298,-3.1,mol/L
O=C(O)C(NCCCCCNC(C(=O)O)C1=CC=CC=C1)C1=CC=CC=C1,water,298,-2.02,mol/L
C1=CC(=C(C=C1CCO)[N+](=O)[O-])O,water,298,-1.16,mol/L
NC1=NC2=C(N=CN2C2C=CC(CO)C2)C(O)=N1,water,298,-2.3,mol/L
NS(=O)(=O)C1=CC(S(=O)(=O)C2=CC=C(O)C=C2)=CO1,water,298,-2.4,mol/L
NS(=O)(=O)C1=CC(S(=O)(=O)C2=CC=C(O)C=C2)=CS1,water,298,-3.03,mol/L
COC1=CC=C(S(=O)(=O)C2=COC(S(N)(=O)=O)=C2)C=C1,water,298,-3.02,mol/L
COC1=CC=C(S(=O)(=O)C2=CSC(S(N)(=O)=O)=C2)C=C1,water,298,-4.22,mol/L
NS(=O)(=O)C1=CC(S(=O)(=O)C2=CC(O)=CC=C2)=CS1,water,298,-2.72,mol/L
O=C(O)C1=CN(C2CC2)C2=C(C=C(F)C(N3CCNCC3)=C2)C1=O,water,298,-3.74,mol/L
NC(CCCCNC(=O)OCC1C2=C(C=CC=C2)C2=C1C=CC=C2)C(=O)O,water,298,-3.0,mol/L
CN1CCC(=C2C3=C(C=CC=C3)C=CC3=C2C=CC=C3)CC1,water,298,-3.09,mol/L
CC(C)CNCC1=CC=C(S(=O)(=O)C2=CSC(S(N)(=O)=O)=C2)C=C1,water,298,-1.16,mol/L
O=C(O)CC1=C(NC2=C(Cl)C=CC=C2Cl)C=CC=C1,water,298,-3.78,mol/L
CC1=CC=C(S(=O)(=O)NCl)C=C1,water,298,-0.36,mol/L
COC1=C(Cl)C=C(Cl)C(OC)=C1O,water,298,-2.96,mol/L
NC1=NC2=C(C=N1)N=CN2COCCO,water,298,-1.08,mol/L
CC1=CC2OC3CC(O)C(C)(C2(CO)CC1)C31CO1,water,298,-2.61,mol/L
CC(C)(C)N1C=C(C(=O)O)C(=O)C2=C1C=C(N1CCNCC1)C(F)=C2,water,298,-3.43,mol/L
CCOP(=O)(CC1=CC=C(C2=NC3=C(C=CC=C3)S2)C=C1)OCC,water,298,-4.0,mol/L
CN1CC2C3=C(C=CC=C3)OC3=C(C=C(Cl)C=C3)C2C1,water,298,-2.13,mol/L
C1=CC2=C(C=C1F)NC(=N2)C3=CC=C(O3)[N+](=O)[O-],water,298,-4.0,mol/L
O=S(=O)(O)C1=CC2=C(C=CC=C2)C=C1,water,298,-1.27,mol/L
C#CC1CN2CCC1CC2C(O)C1=CC=NC2=C1C=C(OC)C=C2,water,298,-2.12,mol/L
CCCCCCCCCCSC(=N)N,water,298,-2.71,mol/L
CCOC(=O)N1CCN(C)CC1,water,298,1.13,mol/L
CCOC(=O)N1CC(C)NCC1C,water,298,0.65,mol/L
CC1=CC2=C(N)C3=C(C=CC=C3)N=C2C=C1,water,298,-2.39,mol/L
CS(=O)(=O)C1=CC=C(C(=N)N)C=C1,water,298,-1.38,mol/L
CC1CN(C(=N)N)C(C)CN1C(=N)N,water,298,0.02,mol/L
NC1=C2C=C(F)C=CC2=NC2=C1C=CC=C2,water,298,-2.4,mol/L
NC1=C2C=CC(F)=CC2=NC2=C1C=CC=C2,water,298,-2.12,mol/L
NC1=C2C=CC=C(F)C2=NC2=C1C=CC=C2,water,298,-1.66,mol/L
NC1=C2C(F)=CC=CC2=NC2=C1C=CC=C2,water,298,-0.95,mol/L
NC1=C2C(Cl)=CC=CC2=NC2=C1C=CC=C2,water,298,-1.58,mol/L
CCCCCCCCCCN1CCCCC1,water,298,-1.53,mol/L
NC1=C2C=C(Cl)C=CC2=NC2=C1C=CC=C2,water,298,-2.42,mol/L
NC1=C2C=CC(Cl)=CC2=NC2=C1C=CC=C2,water,298,-1.73,mol/L
CCN(CC)NC(=O)NC1=C(C)C=CC=C1C,water,298,-1.09,mol/L
OC(C1=CC=CC=C1)(C1=CC=CC=C1)C1CCNCC1,water,298,-1.39,mol/L
CN1CCN(C(C2=CC=CC=C2)C2=CC=CC=C2)CC1,water,298,-1.53,mol/L
C1=CC=C2C(=C1)C(=C3C(=N2)C=CC=C3[N+](=O)[O-])N,water,298,-1.84,mol/L
C1CCC(NCCNC2CCCCC2)CC1,water,298,-0.98,mol/L
NC1=C2C=CC=CC2=NC2=CC=CC(C(F)(F)F)=C21,water,298,-2.48,mol/L
CC(CCNCCNCCC(C)CC(C)(C)C)CC(C)(C)C,water,298,-2.24,mol/L
OC(CN1CCCCC1)C1=C2C=CC=CC2=C(Cl)C=C1,water,298,-1.55,mol/L
NC1=C2C=CC(C(F)(F)F)=CC2=NC2=C1C=CC=C2,water,298,-2.17,mol/L
CCN(CC)CCC(C)(O)C1=C2C=CC=CC2=C(OC)C=C1,water,298,-1.68,mol/L
N=C(N)C1=CC=C(CCC2=CC=C(C(=N)N)O2)O1,water,298,-1.02,mol/L
CCOC1=CC=C(C(=O)OCCNC(C)C2=CC=CC=C2)C=C1,water,298,-1.49,mol/L
CC1=C(NC(=O)C(=O)C(=O)NC2=C(C)C=CC=C2)C=CC=C1,water,298,-2.2,mol/L
C1=CC=C2C(=C1)/C(=N/O)/C(C2=O)[N+](=O)[O-],water,298,-2.68,mol/L
O=C(CCCN1CCC(O)(C2=CC=CC=C2)CC1)C1=CC=CC=C1,water,298,-2.68,mol/L
CC1=CC=C(C2(O)CCN(CCCC(=O)C3=CC=CC=C3)CC2)C=C1,water,298,-1.62,mol/L
CN(C)CC1CC2C3CC=C4CC(O)CCC4(C)C3CCC2(C)C1=O,water,298,-1.49,mol/L
C1=CC=C(CNCCNCC2=CC=CC=C2)C=C1,water,298,-1.21,mol/L
O=C(CCCN1CCC(O)(C2=CC=C(F)C=C2)CC1)C1=CC=CC=C1,water,298,-2.97,mol/L
O=C(CCCN1CCC(O)(C2=CC=CC=C2)CC1)C1=CC=C(F)C=C1,water,298,-2.87,mol/L
O=C(CCCN1CCC(O)(C2=CC=C(Cl)C=C2)CC1)C1=CC=CC=C1,water,298,-3.35,mol/L
NC1=CC(S(=O)(=O)O)=CC(C(=O)O)=C1,water,298,-0.94,mol/L
OC1=C(S(=O)(=O)O)C(=O)C2=C1C=CC=C2,water,298,-2.23,mol/L
OC(C1=CC=CC=C1)(C1=CC=CC=C1)C1CCCCN1,water,298,-1.9,mol/L
CC1=CC=CC(CN2CCN(C(C3=CC=CC=C3)C3=CC=C(Cl)C=C3)CC2)=C1,water,298,-4.63,mol/L
O=C(CCCN1CCC(O)(C2=CC=C(F)C=C2)CC1)C1=CC=C(F)C=C1,water,298,-2.83,mol/L
O=C(CCCN1CCC(O)(C2=CC=C(Cl)C=C2)CC1)C1=CC=C(F)C=C1,water,298,-3.28,mol/L
CN1CCC23C4=C5C=CC(OCC6=CC=CC=C6)=C4OC2CCCC3C1C5,water,298,-4.22,mol/L
OC1=C(Cl)C(Cl)=C(Cl)C(Cl)=C1Cl,water,298,-4.7,mol/L
CC(SC1=CC=CC=C1)S(=O)(=O)O,water,298,-0.49,mol/L
CCC1(C2=CC=CC=C2)C(=O)NC(=O)NC1=O,water,298,-2.1,mol/L
O=S(=O)(O)CCSC1=CC=CC=C1,water,298,-1.53,mol/L
O=C1OC(C(O)CO)C(O)=C1O,water,298,-0.81,mol/L
NC1=CC=C(S(=O)(=O)NC2=C(C(=O)O)C=CC=C2)C=C1,water,298,-0.8,mol/L
CN1CCC23C=CC=CC2C1CC1=C3C(O)=C(O)C=C1,water,298,-1.72,mol/L
COCOC1=C2OC3C(O)CCC4C5CC(=C2C43CCN5C)C=C1,water,298,-1.96,mol/L
CN(C)CC(O)C1=C2C=CC=CC2=C(Cl)C=C1,water,298,-1.22,mol/L
O=C1NC(=O)C(C2=CC=CC=C2)(C2=CC=CC=C2)N1,water,298,-4.1,mol/L
NC1=CC=C(S(=O)(=O)NC2=NC=CC=N2)C=C1,water,298,-2.16,mol/L
CCN(CC)CC(C1=CC=CC=C1)OC(=O)C2=CC=C(C=C2)[N+](=O)[O-],water,298,-2.84,mol/L
COC1=C2OC3C(OC(C)=O)C=CC4C5CC(=C2C43CCN5C)C=C1,water,298,-1.3,mol/L
NC1=CC=C(S(=O)(=O)NC2=NC=CS2)C=C1,water,298,-2.87,mol/L
CC1=C(N(C)C)C(=O)N(C2=CC=CC=C2)N1C,water,298,-0.64,mol/L
O=C(OCC1=CC=CC=C1)C(OS(=O)(=O)O)C1=CC=CC=C1,water,298,-1.5,mol/L
N=C(N)NN=C1C=CC(=NNC(=N)N)C2=C1C=CC=C2,water,298,-3.29,mol/L
C1=CC2=C(C=C1S(=O)(=O)O)C(=C(C=C2[N+](=O)[O-])[N+](=O)[O-])O,water,298,-2.54,mol/L
CC1=CC(=O)N(C2=CC=CC=C2)N1C,water,298,-1.09,mol/L
CN1C2CCC1CC(OC(=O)C(CO)C1=CC=CC=C1)C2,water,298,-1.18,mol/L
CN1CCC23C4=C5C=CC(O)=C4OC2C(O)C=CC3C1C5,water,298,-3.1,mol/L
CN(C)C(=O)C1=CC=C(Cl)C=C1,water,298,-1.0,mol/L
COC1=CC=C(C(=O)NN)C=C1,water,298,-1.15,mol/L
COC1=CC=C(CN(CCN(C)C)C2=NC=CC=N2)C=C1,water,298,-2.99,mol/L
O=C(C1=CC=CC=C1)C(O)C1=CC=CC=C1,water,298,-3.82,mol/L
CCC1(C(=O)NC(=NC1=O)[O-])CC,water,298,-0.07,mol/L
COC1=C(OC)C=C(CC2=NC=CC3=CC(OC)=C(OC)C=C32)C=C1,water,298,-2.29,mol/L
NC1=C(S(=O)(=O)O)C=CC2=C1C=CC=C2,water,298,-1.66,mol/L
COC1=C2OC3C(OC(C)=O)CCC4C5CC(=C2C43CCN5C)C=C1,water,298,-1.75,mol/L
CC(C)CCOC(=O)C1CN2CCC1CC2C(O)C1=CC=NC2=C1C=CC=C2,water,298,-1.41,mol/L
CC1=C(S(=O)(=O)O)C=CC(O)=C1,water,298,-0.29,mol/L
NC(CC1=CC=C(O)C=C1)C(=O)O,water,298,-3.06,mol/L
CN(C)C(=O)C1=CC=C(C=C1)[N+](=O)[O-],water,298,-1.27,mol/L
NC1=C(Cl)C(=O)N(C2=CC=CC=C2)N=C1,water,298,-2.74,mol/L
C=CCC1=C(OCC(O)CNC(C)C)C=CC=C1,water,298,-2.88,mol/L
CN1CCN=C(C2=CC=CC=C2)C2=C1C=CC(Cl)=C2,water,298,-3.76,mol/L
CN(C)CCCOC1(CC2=CC=CC=C2)CCCCCC1,water,298,-1.62,mol/L
COC(=O)C(CO)NC(=O)C(Cl)Cl,water,298,-0.06,mol/L
O=C(C1=CC=CC=C1)C1=CC=C2C(C(=O)O)CCN12,water,298,-3.26,mol/L
CC(C)NCC(O)COC1=C2C=CC=CC2=CC=C1,water,298,-3.99,mol/L
CCN(CC)C(C)CN1C2=C(C=CC=C2)SC2=C1C=CC=C2,water,298,-2.15,mol/L
CCOP(=O)(CC1=CC=C(C2=NC3=C(C=CC=C3)S2)C=C1)N1CCCC1=O,water,298,-3.73,mol/L
O=C(NC1=C(F)C=C(F)C=C1)C1=C(OC2=CC(C(F)(F)F)=CC=C2)N=CC=C1,water,298,-6.9,mol/L
ClC1=CC(Cl)=C(COC(CN2C=CN=C2)C2=C(Cl)C=C(Cl)C=C2)C=C1,water,298,-3.45,mol/L
CCOC(=O)CC1=CC=C(C2=NC3=C(C=CC=C3)S2)C=C1,water,298,-4.36,mol/L
CC(=O)OCSC1=NC=NC2=C1N=CN2,water,298,-2.14,mol/L
CC(C)CC(NC(=O)C(N)CC1=CNC2=C1C=CC=C2)C(=O)O,water,298,-1.76,mol/L
CC(C)(CF)N1C=C(C(=O)O)C(=O)C2=C1C=C(N1CCNCC1)C(F)=C2,water,298,-2.6,mol/L
O=C(O)C1=CN(C2CC2)C2=C(C=C(F)C(N3CC4CC3CN4)=C2)C1=O,water,298,-3.65,mol/L
C#CCC(NC(=O)OC(C)(C)C)C(=O)NCC(=O)OC,water,298,-1.45,mol/L
CCOC(=O)C1=C(C)NC(C)=C(C(=O)OC)C1C1=C(Cl)C(Cl)=CC=C1,water,298,-5.68,mol/L
O=C(O)C1OC(C2=CC=CC=C2)OC1C1COC(C2=CC=CC=C2)O1,water,298,-2.45,mol/L
CC1=CC=C(C2=C(CC(=O)N(C)C)N3C=C(C)C=CC3=N2)C=C1,water,298,-1.3,mol/L
COC(=O)C(C)C1=CC2=CC=C(OC)C=C2C=C1,water,298,-4.78,mol/L