Solute,Solvent,Temperature_K,Solubility,Units
CCCCCCCCCCCCCCCC(=O)OC,water,298,-7.830038235,mol/L
CCCCC(CC)COC(=O)CCCCC(=O)OCC(CC)CCCC,water,298,-8.063724967,mol/L
CCCCC(CC)COC(=O)c1ccccc1C(=O)OCC(CC)CCCC,water,298,-8.114570955,mol/L
OCCOC(=O)CC(C[P]1(=O)Oc2ccccc2c3ccccc13)C(=O)OCCO,water,298,-4.461779562,mol/L
CC1(C)Nc2cccc3cccc(N1)c23,water,298,-2.929898895,mol/L
[K+].CC(C)CCCCCCCCCCCCCCC([O-])=O,water,298,-8.146901524,mol/L
CC(C)(C)c1cc(c(O)c(c1)C(C)(C)C)c2cc(cc(c2O)C(C)(C)C)C(C)(C)C,water,298,-8.613463367,mol/L
CC(C)(C)CC(C)(C)c1ccc(O)c(c1)n2nc3ccccc3n2,water,298,-8.208763733,mol/L
CCN(CCOc1ccc(cc1)C2CCCCC2)c3ccc(C=C(C#N)C#N)c(C)c3,water,298,-8.386094856,mol/L
CC(C)(C)c1cc(c(O)c(c1)C(C)(C)C)c2cc(cc(c2O)C(C)(C)C)C(C)(C)C,water,298,-6.889187497,mol/L
CCCCCCCCCCCCCCCCCCO,water,298,-8.39077619,mol/L
[K+].CC(C)CCCCCCCCCCCCCCC([O-])=O,water,298,-8.66353132,mol/L
CCCCCCCCCCCCCCCCCCOC=C,water,298,-8.703443717,mol/L
COc1ccccc1N\N=C2/C(=O)C=Cc3ccccc23,water,298,-8.926016432,mol/L
CCCCCCCCCCCCCCCCCC(=O)OC,water,298,-8.997839085,mol/L
CC(C)CCCCCCCOC(=O)c1ccccc1C(=O)OCCCCCCCC(C)C,water,298,-9.419539808,mol/L
O=[V](=O)O[V](=O)=O,water,298,-2.303614127,mol/L
CCC(COCCOC(=O)C=C)(COCCOC(=O)C=C)COCCOC(=O)C=C,water,298,-2.687445856,mol/L
Oc1ccc(cc1)C(c2ccc(O)cc2)c3ccccn3,water,298,-4.523907797,mol/L
CC(C)(c1ccc(OCCO)cc1)c2ccc(OCCO)cc2,water,298,-2.660126263,mol/L
[OH-].[OH-].[OH-].[OH-].[OH-].[O--].[O--].[O--].[O--].[O--].[V].[V].[V].[V].[V].[V].[O-][P]([O-])([O-])=O.[O-][P]([O-])([O-])=O.[O-][P]([O-])([O-])=O.[O-][P]([O-])([O-])=O.[O-][P]([O-])([O-])=O,water,298,-1.350363781,mol/L
[Ag].OC(O)=O,water,298,-3.452021679,mol/L
CC(CCC=O)C1C(=CCCC1(C)C)C,water,298,-5.540631832,mol/L
[K+].[O-][S](=O)(=O)C(F)(F)C(F)(F)C(F)(F)C(F)(F)F,water,298,-0.808172449,mol/L
[K+].CCCCCCCCCCCCO[P](O)([O-])=O,water,298,-3.784486057,mol/L
CCCCCCCCC(C)C=O,water,298,-3.532234443,mol/L
[F-].[F-].[F-].[Al+3],water,298,-4.199879315,mol/L
C=CCOC(=O)c1ccccc1C(=O)OCC=C,water,298,-3.729584717,mol/L
[Si],water,298,-2.795277378,mol/L
OC(=O)c1ccccc1C(=O)c2ccc(cc2)c3ccccc3,water,298,-4.828233467,mol/L
[O-][N+](=O)N1CN(CN(CN(C1)[N+]([O-])=O)[N+]([O-])=O)[N+]([O-])=O,water,298,-4.82511681,mol/L
CC(=O)[C@H]1CCC(=CCCC=C(C)CCC1=C)C.CC(=O)[C@@H]2CCC(=CCCC=C(C)CCC2=C)C.CC(=O)[C@H]3CCC(=CCCC=C(C)CC=C3C)C.CC(=O)[C@@H]4CCC(=CCCC=C(C)CC=C4C)C.CC/5=C/CC\C=C(C)/CC/C(=C(/C)CC5)C(C)=O,water,298,-5.449126022,mol/L
CCC(C)(N=NC(C)(CC)C#N)C#N,water,298,-2.696191526,mol/L
N[C@@H](CCC(O)=O)C(O)=O.OCCN(CCO)CCO,water,298,0.111437809,mol/L
[O-][N+](=O)N1CN(CN(C1)[N+]([O-])=O)[N+]([O-])=O,water,298,-3.762250575,mol/L
C=CCOc1nc(OCC=C)nc(OCC=C)n1,water,298,-2.883452414,mol/L
c1ccc2ccccc2c1,water,298,-3.619249221,mol/L
Oc1ccc(c(O)c1O)C(=O)c2ccc(O[S](=O)(=O)c3cccc4C(=O)C(=CCc34)N=NN=N)cc2,water,298,-5.105290731,mol/L
[O-][N+](=O)N1CN(CN(CN(C1)[N+]([O-])=O)[N+]([O-])=O)[N+]([O-])=O,water,298,-4.963664664,mol/L
C.O[S](O)(=O)=O,water,298,-4.580248119,mol/L
ClC(=C)C=C,water,298,-2.550925455,mol/L
C=C[S](=O)(=O)C[S](=O)(=O)C=C,water,298,-3.91989545,mol/L
FC(F)(F)F,water,298,-3.670339628,mol/L
CC(C)(c1ccccc1)c2ccc(O)cc2,water,298,-4.096484707,mol/L
CCCC(CC)COC(=O)CCc1cc(c(O)c(c1)C(C)(C)C)C(C)(C)C,water,298,-0.350549123,mol/L
CCCSc1nc(Cl)c(c(Cl)n1)[N+]([O-])=O,water,298,-4.386944624,mol/L
[Na+].[Na+].[O-]C(=O)c1ccccc1C2=C3C=C(Br)C(=O)C(=C3Oc4c(Br)c([O-])c(Br)cc24)Br,water,298,-0.840017595,mol/L
CO[S](C)(=O)=O,water,298,-0.041921413,mol/L
[Na+].[Na+].[O-]C(=O)c1ccccc1C2=C3C=CC(=O)C=C3Oc4cc([O-])ccc24,water,298,-3.575505364,mol/L
O=[P](Oc1ccccc1)(Oc2ccccc2)Oc3ccccc3,water,298,-5.367473066,mol/L
CCCCCC/C=C/CCCCCCCc1cccc(OCC2CO2)c1.CCC/C=C/C/C=C/CCCCCCCc3cccc(OCC4CO4)c3.C=CC/C=C/C/C=C/CCCCCCCc5cccc(OCC6CO6)c5,water,298,-6.079851689,mol/L
CC(C)=O.C=O.N(c1ccccc1)c2ccccc2,water,298,-5.969586401,mol/L
COC(C)COC(C)COCCC[Si](C)(O[Si](C)(C)C)O[Si](C)(C)O[Si](C)(C)C,water,298,-6.287739939,mol/L
O=[P](Oc1ccccc1)(Oc2ccccc2)Oc3ccccc3,water,298,-6.212571106,mol/L
CCCCCCCCCCCCCCCCOC(=O)Oc1c(Cl)cc(cc1Cl)C(=O)OCC,water,298,-7.133803789,mol/L
OC(=O)\C=C\C(O)=O,water,298,-7.286576217,mol/L
[Cu++].CCCCCCCC\C=C/CCCCCCCC([O-])=O.CCCCCCCC\C=C/CCCCCCCC([O-])=O,water,298,-11.99893786,mol/L
Cl.OC(=O)[C@@H]1C[C@H](CN1)C2CCCCC2,water,298,0.631268384,mol/L
O=C1NC2CC1C=C2,water,298,0.936160808,mol/L
O=C1N(CC2CO2)C(=O)N(CC3CO3)C(=O)N1CC4CO4,water,298,-1.518904191,mol/L
CCCCCCCCCCCCOC(=O)C(C)O,water,298,-4.421069795,mol/L
O=C(Nc1ccccc1SSc2ccccc2NC(=O)c3ccccc3)c4ccccc4,water,298,-4.756438311,mol/L
C1CCC(CC1)c2ccccc2,water,298,-4.341502278,mol/L
CCCCCCCCCCCC(=O)OCC(O)CO,water,298,-5.43838569,mol/L
CC1=CCC2CC1C2(C)C,water,298,-3.453057022,mol/L
[Na+].[Na+].[K+].[K+].Nc1c(cc(c(N)c1N=Nc2ccc(cc2)[S](=O)(=O)CCO[S]([O-])(=O)=O)[S]([O-])(=O)=O)N=Nc3ccc(cc3[S]([O-])(=O)=O)[S](=O)(=O)CCO[S]([O-])(=O)=O,water,298,-0.289144621,mol/L
[Na+].CCCCc1ccc2[n-]nnc2c1,water,298,0.404025656,mol/L
CC1=CCC2CC1C2(C)C,water,298,-3.490845583,mol/L
CC1=CCC2CC1C2(C)C,water,298,-3.642936566,mol/L
CC1=CCC2CC1C2(C)C,water,298,-2.924783245,mol/L
CC1=CCC2CC1C2(C)C,water,298,-3.06984027,mol/L
CC1=CCC2CC1C2(C)C,water,298,-3.772570424,mol/L
CC(C)(c1ccc(OCC2CO2)cc1)c3ccc(OCC4CO4)cc3,water,298,-4.799620032,mol/L
CCCCCCCCCCCCCCCCN(C)C,water,298,-4.652434914,mol/L
CC(C)C1CC2=C(C)CC1C(C2)C=O,water,298,-3.850854284,mol/L
CCCCCCCCCCCCN(C)C,water,298,-4.727152739,mol/L
CCCCCCCCCCCCN(C)C,water,298,-4.426122744,mol/L
CCCCC,water,298,-3.339728415,mol/L
[Na+].[Na+].[Na+].[Na+].CCN(c1ccccc1)c2nc(Cl)nc(Nc3cc(cc4cc(c(N=Nc5ccc6c(cccc6[S]([O-])(=O)=O)c5[S]([O-])(=O)=O)c(O)c34)[S]([O-])(=O)=O)[S]([O-])(=O)=O)n2,water,298,-0.50252635,mol/L
Clc1ccc(Oc2cccc(Cl)c2)cc1,water,298,-5.387355317,mol/L
Clc1ccc(Oc2cccc(Cl)c2)cc1,water,298,-5.539732302,mol/L
CCCCC(CC)C(=O)OCC(COCC(COC(=O)CCCCCC(C)C)(COC(=O)C(CC)CCCC)COC(=O)C(CC)CCCC)(COC(=O)CCCCCC(C)C)COC(=O)CCCCCC(C)C,water,298,-7.323686796,mol/L
CCN(CC)CCCNc1nc(Nc2ccc(cc2)N=Nc3c(O)c4c(Nc5nc(NCC(C)N)nc(NCC(C)N)n5)cc(cc4cc3[S](O)(=O)=O)[S](O)(=O)=O)nc(Nc6ccc(cc6)N=Nc7c(O)c8c(Nc9nc(NCC(C)N)nc(NCC(C)N)n9)cc(cc8cc7[S](O)(=O)=O)[S](O)(=O)=O)n1.CC(O)C(O)=O,water,298,-0.794219043,mol/L
CCc1ccccc1.CCc2cc(CC)c(CC)cc2CC.CCC(C)(c3ccccc3)c4ccccc4.Cc5ccccc5.Cc6ccccc6c7ccccc7.Cc8cccc9ccccc89.C=Cc%10ccccc%10.C%11CCC(CC%11)c%12ccccc%12.C(Cc%13ccccc%13)c%14ccccc%14.c%15ccccc%15.c%16ccc(cc%16)c%17ccccc%17,water,298,-4.80302069,mol/L
Cl.CCCCCCCCCCCC(=O)N[C@@H](CCCNC(N)=N)C(=O)OCC,water,298,-0.231611963,mol/L
OC(=O)Cc1ccc(Cl)cc1Cl,water,298,-2.950110757,mol/L
CCC(=O)/C=C/C1C(=CCCC1(C)C)C,water,298,-3.992340979,mol/L
CC(=O)C(\C)=C/C1C(=CCCC1(C)C)C,water,298,-3.992340979,mol/L
CC(C)[C@@H]1CC[C@@H](C)C[C@H]1OC(C)=O,water,298,-3.97511656,mol/L
CC(=O)CC(=O)Nc1ccc(NC(=O)CC(C)=O)cc1,water,298,-3.12750109,mol/L
[OH-].[Cr+3].[O-][S]([O-])(=O)=O,water,298,-2.916627632,mol/L
[Cl-].CCCCCCCCCCCC(=O)OCC[N+](C)(C)C,water,298,-2.211100306,mol/L
CCc1ccc(CC)cc1.CC(C)c2ccccc2.Cc3ccccc3.Cc4cc(C)cc(C)c4.C5CCc6ccccc6C5.C7Cc8ccccc8C7.C9C=Cc%10ccccc9%10.c%11ccccc%11.c%12ccc%13ccccc%13c%12,water,298,-3.87073364,mol/L
CCCCC.CCc1ccccc1.Cc2ccccc2.Cc3cccc(C)c3.C4CCCC4,water,298,-3.503949163,mol/L
Cc1ccccc1.C=Cc2ccccc2.c3ccccc3,water,298,-3.29226715,mol/L
O=C(OCc1ccccc1)c2ccccc2,water,298,-4.177624494,mol/L
O=[S](=O)(c1ccccc1)c2ccccc2,water,298,-4.192879941,mol/L
C=CC(=O)N1CCOCC1,water,298,0.850257585,mol/L
COCC(C)O,water,298,1.045169179,mol/L
[Na+].[Na+].[O-]C(=O)CCC([O-])=O,water,298,-0.209654395,mol/L
CNC,water,298,-0.654032074,mol/L
[Na+].[Na+].[O-]C(=O)c1ccccc1C2=C3C=CC(=O)C=C3Oc4cc([O-])ccc24,water,298,-1.575505364,mol/L
O=C1CCCN1,water,298,-0.929960179,mol/L
[NH4+].O.[O--].[Mo],water,298,-1.170241174,mol/L
[H+].[Cl-].CC1=CC(C=CC1=N)=C(c2ccc(N)cc2)c3ccc(N)cc3,water,298,-2.528729065,mol/L
OC(=O)CS,water,298,-1.964349215,mol/L
CC(CCCC(C)(C)O)CC=O.[nH]1ccc2ccccc12,water,298,-4.92245094,mol/L
CCCCCCCCCCCCCCCCCCOC(=O)\C=C\C(=O)OCCCCCCCCCCCCCCCCCC,water,298,-7.094152366,mol/L
O.[In+3].[O-][N+]([O-])=O.[O-][N+]([O-])=O.[O-][N](=O)=O,water,298,-2.503579611,mol/L
[Na+].C[S-],water,298,-1.845668452,mol/L
N1c2ccccc2Sc3ccccc13,water,298,-6.258066671,mol/L
CCOC(=O)CN=C(c1ccccc1)c2ccccc2,water,298,-3.427044449,mol/L
Cc1cc(c(OP2OCC3(CO2)COP(OC3)Oc4c(cc(C)cc4C(C)(C)C)C(C)(C)C)c(c1)C(C)(C)C)C(C)(C)C,water,298,-7.801238331,mol/L
[Al+3].[O-][P]([O-])([O-])=O,water,298,-4.246082833,mol/L
CCOC(=O)CC(NC1CCC(CC2CCC(NC(CC(=O)OCC)C(=O)OCC)C(C)C2)CC1C)C(=O)OCC,water,298,-5.06653389,mol/L
CCCCCCCCCCCC(=O)NCCC[N+](C)(C)CC([O-])=O,water,298,-3.136750998,mol/L
CC[Pb](CC)(CC)CC,water,298,-5.138736608,mol/L
CN(C)CCOCCO,water,298,-0.12447488,mol/L
Nc1ccc(c(N)c1)[N+]([O-])=O,water,298,-2.185091479,mol/L
CCCCCCCCCCCC([O-])=O.CCCCCCCCCCCC([O-])=O.CCCC[Sn++]CCCC,water,298,-5.645086143,mol/L
CC(C)CCCCCCOC(=O)c1ccccc1C(=O)OCCCCCCC(C)C,water,298,-5.475689863,mol/L
CC[Pb](CC)(CC)CC,water,298,-5.412894457,mol/L
[F-].[F-].[F-].[Ce+3],water,298,-5.253315973,mol/L
CCCCCCCCCCCCCCCC(=O)O[C@@H]1C[C@H](N(C1)C(=O)CCCCCCCCCCCCCCC)C(O)=O,water,298,-5.783875721,mol/L
CC1=CCC2C(C1)C2(C)C,water,298,-5.435328255,mol/L
CCCCCCCCCCCC(=O)OOC(=O)CCCCCCCCCCC,water,298,-6.123446546,mol/L
[F-].[F-].[F-].[Ce+3],water,298,-5.863344894,mol/L
c1ccc(cc1)P(c2ccccc2)c3ccccc3,water,298,-6.2013011,mol/L
[F-].[F-].[F-].[Ce+3],water,298,-6.090588675,mol/L
CC(CCC=C(C)C)C=C,water,298,-5.964586446,mol/L
CCCCCCCCCC(O)=O.CCCCCCCC(O)=O.CCCCCCC(O)=O.CCCCC(O)=O.OCC(CO)(CO)CO,water,298,-7.53462824,mol/L
CCCCC(CC)COC(=O)CSCC(=O)OCC(CC)CCCC,water,298,-6.654998171,mol/L
CC(C)(c1cc(Br)c(O)c(Br)c1)c2cc(Br)c(O)c(Br)c2,water,298,-6.832409109,mol/L
[F-].[F-].[F-].[Ce+3],water,298,-6.408217933,mol/L
B12B3B4B1C234,water,298,-5.885070525,mol/L
CC(C)=CCCc1ccc2C(=O)c3ccccc3C(=O)c2c1,water,298,-7.985818524,mol/L
CCCCCCCCCOC(=O)c1ccccc1C(=O)OCCCCCCCC,water,298,-4.780941415,mol/L
[Li+].CCCCCCCCCCCCCCCCCCCCCC([O-])=O,water,298,-6.876976741,mol/L
[Li+].CCCCCCCCCCCCCC([O-])=O,water,298,-6.707031139,mol/L
[Li+].CCCCCCCC\C=C/CCCCCCCC([O-])=O,water,298,-6.79723893,mol/L
[Li+].CCCCCCC(O)CCCCCCCCCCC([O-])=O,water,298,-6.823553607,mol/L
[Rh].CC(=O)[CH-]C(C)=O.[C-]#[O+].c1ccc(cc1)P(c2ccccc2)c3ccccc3,water,298,-7.312033591,mol/L
CC1(C)C2CCC(=C)C1C2,water,298,-6.833268264,mol/L
CC(C)CCCCCCCCOCCCNCCC#N,water,298,-3.618466492,mol/L
CC(=O)OC[C@H]1CCC=C(CCC=C(C)C)C1,water,298,-4.975624785,mol/L
CC(CCNC(=O)OCCOC(=O)C(C)=C)CC(C)(C)CNC(=O)OCCOC(=O)C(C)=C,water,298,-4.631225091,mol/L
CC(=O)c1cc(Nc2nc(Nc3cc(C(C)=O)c(N)c4C(=O)c5ccccc5C(=O)c34)nc(n2)c6ccccc6)c7C(=O)c8ccccc8C(=O)c7c1N,water,298,-4.950431795,mol/L
CC1(C)CCC[C@@]2(C)[C@H]1CC[C@@]3(C)OCC[C@H]23,water,298,-4.581253946,mol/L
CCCCCCCCCCCCCCCC(=O)OCC(O)CO,water,298,-4.726791601,mol/L
CCCCCCCC.CC(C)(C)OO.CC1(C)CC(CC(C)(C)N1)OC(=O)CCCCCCCCC(=O)OC2CC(C)(C)NC(C)(C)C2,water,298,-5.05759511,mol/L
CCCCC(CC)COC(=O)CS[Sn](C)(C)SCC(=O)OCC(CC)CCCC,water,298,-4.045663238,mol/L
CCCCCCCC\C=C/CCCCCCCC1=NCCN1CCO,water,298,-3.845830759,mol/L
CCCCCCCCCCCCCCCCCCCCCC(O)=O,water,298,-3.833264439,mol/L
O.Cl.[Zn].CC(C)(C)c1cc(C(O)=O)c(O)c(c1)C(C)(C)C,water,298,-4.869471103,mol/L
[Zn++].CCCC(C)C(CCC)C(C)Cc1ccc(O[P]([S-])(=S)Oc2ccc(CC(C)C(CCC)C(C)CCC)cc2)cc1.CCCC(C)C(CCC)C(C)Cc3ccc(O[P]([S-])(=S)Oc4ccc(CC(C)C(CCC)C(C)CCC)cc4)cc3,water,298,-5.415414768,mol/L
[Cr+3].CCCCC(CC)C([O-])=O.CCCCC(CC)C([O-])=O.CCCCC(CC)C([O-])=O,water,298,-3.019941271,mol/L
Oc1cc(O)c2C[C@@H](OC(=O)c3cc(O)c(O)c(O)c3)[C@H](Oc2c1)c4cc(O)c(O)c(O)c4,water,298,-1.059160932,mol/L
CCOCCCCCCCCCCCCCC\C=C\CC,water,298,-4.799983961,mol/L
Fc1cc(Cl)ccc1CC#N,water,298,-2.59390625,mol/L
CC(CC(C)(C)C#N)c1ccccc1,water,298,-3.235078816,mol/L
CC(=O)OC1CCC(CC1)C(C)(C)C,water,298,-3.699640669,mol/L
CCCCCCCCCCCCCCO,water,298,-5.486112561,mol/L
C[C@]12CC[C@H]3[C@@H](CC[C@H]4CC(=O)CC[C@]34C)[C@@H]1CC[C@@H]2O,water,298,-4.918998851,mol/L
O=C(NC1CCCCC1)Nc2ccc(Cc3ccc(NC(=O)NC4CCCCC4)cc3)cc2,water,298,-5.142667396,mol/L
CC1=CC(C)(C)Nc2ccccc12,water,298,-4.733545825,mol/L
Cc1ccc(cc1N=C=O)N2C(=O)N(c3ccc(C)c(c3)N=C=O)C2=O,water,298,-5.03682594,mol/L
CCCCCCCCCCCC(=O)OCC(O)[C@H]1OC[C@@H](O)[C@@H]1O,water,298,-5.06253686,mol/L
CC(=C)c1ccc(cc1)C(=O)C(C)(C)O.CC(C)(O)C(=O)c2ccc(cc2)C3(C)CC(C)(C)c4cc(ccc34)C(=O)C(C)(C)O.CC(C)(O)C(=O)c5ccc(cc5)C6(C)CC(C)(C)c7ccc(cc67)C(=O)C(C)(C)O,water,298,-5.532051212,mol/L
COC(=O)CN(CC(=O)OC)c1ccc(N=Nc2ccc(cc2C#N)[N+]([O-])=O)c(NC(C)=O)c1,water,298,-5.193519738,mol/L
[Cu+].[I-],water,298,-5.978750981,mol/L
Nc1ccc(N=Nc2cccc(c2)N=Nc3ccc(N)cc3N)c(N)c1,water,298,-4.197152695,mol/L
CCCC(C)C.CCCC(C)CC.CCC(C)CC.CCC(C)C(C)C,water,298,-3.270406298,mol/L
CCCCC,water,298,-2.557212359,mol/L
CC\C=C\C,water,298,-2.544904806,mol/L
S,water,298,-5.532537815,mol/L
CC(=O)OCCN(CCC#N)c1ccc(cc1)N=Nc2sc3cc(ccc3n2)[N+]([O-])=O,water,298,-4.340908898,mol/L
N#Cc1ccccc1/C=C/c2ccc(cc2)/C=C/c3ccccc3C#N,water,298,-4.220638859,mol/L
[O-][N+](=O)c1ccc(N=Nc2ccc(cc2)N(CCC#N)CCC#N)c(Cl)c1,water,298,-4.281954413,mol/L
CC(=O)OCCN(CCC#N)c1ccc(cc1)N=Nc2ccc(cc2)[N+]([O-])=O,water,298,-4.280341584,mol/L
CCN(CCC#N)c1ccc(cc1)N=Nc2c(Br)cc(cc2Br)[N+]([O-])=O,water,298,-4.381248689,mol/L
CCN(CCC#N)c1ccc(cc1)N=Nc2ccc(cc2Cl)[N+]([O-])=O,water,298,-4.252611554,mol/L
COc1cc(N=Nc2c(Cl)cc(cc2[N+]([O-])=O)[N+]([O-])=O)c(NC(C)=O)cc1N(CC=C)CC=C,water,298,-4.388179382,mol/L
CCOC(=O)C(C)OC(=O)c1cc(Oc2ccc(cc2Cl)C(F)(F)F)ccc1[N+]([O-])=O,water,298,-6.623038672,mol/L
C[C@H]1CC(=O)C[C@@H]2CC[C@H]3[C@@H]4CC[C@H](OC(C)=O)[C@@]4(C)CC[C@@H]3[C@@]12C,water,298,-5.092558995,mol/L
CC1=CC(C)(C)Nc2ccccc12,water,298,-4.840755795,mol/L
CCCCCCCCCCCCCCCCCCCCCC(=O)OCC(O)CO,water,298,-6.91873366,mol/L
C[C](C)C,water,298,-4.376546543,mol/L
O[Mo](O)(=O)=O,water,298,-2.379760962,mol/L
CCC=C.C\C=C\C,water,298,-4.669843542,mol/L
CCCCCCCCC(O)=O.CCCCCCC(O)=O.CCCCC(O)=O.OCC(CO)(CO)CO,water,298,-5.418373857,mol/L
CCCCCCCCSCc1cc(C)c(O)c(CSCCCCCCCC)c1,water,298,-5.327113617,mol/L
COc1cc(N=Nc2c(Br)cc(cc2[N+]([O-])=O)[N+]([O-])=O)c(NC(C)=O)cc1N(CCOC(C)=O)CCOC(C)=O,water,298,-5.495120243,mol/L
CCCCC(Cc1cc(c(O)c(c1)C(C)(C)C)C(C)(C)C)(C(=O)OC2CC(C)(C)N(C)C(C)(C)C2)C(=O)OC3CC(C)(C)N(C)C(C)(C)C3,water,298,-5.534690373,mol/L
C1CCC2CCCCC2C1,water,298,-2.895165038,mol/L
C[C@]12CC[C@H]3[C@@H](CCC4=CC(=O)CC[C@H]34)[C@@H]1CCC2=O,water,298,-4.289059935,mol/L
CC(C)(C)c1cc(O)ccc1O,water,298,-1.220683278,mol/L
COc1ccc(N)c(c1)[N+]([O-])=O,water,298,-1.225702037,mol/L
CCOC(OCC)\C=C(C)\CCC=C(C)C,water,298,-2.354799685,mol/L
S=C1Nc2ccccc2N1,water,298,-2.176687281,mol/L
CC(C)(C)C1CCC(O)CC1,water,298,-3.193872833,mol/L
[Zn++].CCCCCCC(O)CCCCCCCCCCC([O-])=O.CCCCCCC(O)CCCCCCCCCCC([O-])=O,water,298,-3.822390402,mol/L
CCCCCCOCCCCCC,water,298,-4.270303761,mol/L
[O-][N+](=O)c1ccc(cc1)N=Nc2ccc(cc2)N(CCOCCC#N)CCC#N,water,298,-4.593750027,mol/L
CCCCN(C1CC(C)(C)N(C)C(C)(C)C1)c2nc(NCCCN(CCN(CCCNc3nc(nc(n3)N(CCCC)C4CC(C)(C)N(C)C(C)(C)C4)N(CCCC)C5CC(C)(C)N(C)C(C)(C)C5)c6nc(nc(n6)N(CCCC)C7CC(C)(C)N(C)C(C)(C)C7)N(CCCC)C8CC(C)(C)N(C)C(C)(C)C8)c9nc(nc(n9)N(CCCC)C%10CC(C)(C)N(C)C(C)(C)C%10)N(CCCC)C%11CC(C)(C)N(C)C(C)(C)C%11)nc(n2)N(CCCC)C%12CC(C)(C)N(C)C(C)(C)C%12,water,298,-5.359014668,mol/L
CCN(CC)c1cc(NC(C)=O)c(cc1OC)N=Nc2c(Cl)cc(cc2[N+]([O-])=O)[N+]([O-])=O,water,298,-4.667327783,mol/L
C1CCC2CCCCC2C1,water,298,-4.140677705,mol/L
CCCC[Sn++]CCCC.[O-]C(=O)\C=C\C([O-])=O,water,298,-4.540328223,mol/L
CC(=C)C(=O)O[Zn]O,water,298,-4.223960359,mol/L
CCCCCCCC\C=C/CCCCCCCC(=O)OCC(C)OC(=O)CCCCCCC\C=C/CCCCCCCC,water,298,-4.781756093,mol/L
C,water,298,-3.959772916,mol/L
O=C(Nc1cccc2C(=O)c3ccccc3C(=O)c12)c4ccc(cc4)c5ccc(cc5)N=Nc6ccc(cc6)c7ccc(cc7)C(=O)Nc8cccc9C(=O)c%10ccccc%10C(=O)c89,water,298,-5.716458279,mol/L
C1Cc2ccc(CCc3ccc1cc3)cc2,water,298,-5.169478497,mol/L
O=C1c2ccccc2c3ccc4c5ccc6c7ccccc7C(=O)c8ccc(c9ccc1c3c49)c5c68,water,298,-5.513312746,mol/L
CCCCCCCCCCCCCCC/C=C/CC(CC(O)=O)C(O)=O,water,298,-5.423491042,mol/L
CCCCCCCCC(O)=O.CCCCCCC(O)=O.CCCCC(O)=O.OCC(CO)(CO)CO,water,298,-5.591236146,mol/L
CC(C)CCCCCCCCCCOC(=O)CCCCC(=O)OCCCCCCCCCCC(C)C,water,298,-5.581183499,mol/L
COc1cc2c3ccccc3C(=O)c4ccc5c6ccc7C(=O)c8ccccc8c9cc(OC)c(c1c5c24)c6c79,water,298,-5.599170695,mol/L
CCCCC[C@H](CCC)CCCO,water,298,-5.156360408,mol/L
CCCCCCC\C=C\CC,water,298,-5.109176236,mol/L
CC(C)(C)OOC1(CCCCC1)OOC(C)(C)C,water,298,-5.386213837,mol/L
CCC(C)(C)OOC1(CCCCC1)OOC(C)(C)CC,water,298,-5.430653641,mol/L
S=[Zn],water,298,-1.987945317,mol/L
CC(C)(C)NSc1sc2ccccc2n1,water,298,-5.377271637,mol/L
CCCCCCCCCCCCCCCC(=O)OC/C=C(C)/C=C/C=C(C)/C=C/C1=C(C)CCCC1(C)C,water,298,-5.72005506,mol/L
CSc1ccccc1,water,298,-5.094149569,mol/L
C[C@@H](Oc1ccc(Oc2ccc(cn2)C(F)(F)F)cc1)C(O)=O,water,298,-1.59581218,mol/L
C[C@@H](Oc1ccc(Oc2ccc(cn2)C(F)(F)F)cc1)C(O)=O,water,298,-2.622795669,mol/L
CC(C)(C)OOC1(CCCCC1)OOC(C)(C)C,water,298,-5.415597615,mol/L
CCC(C)(C)OOC1(CCCCC1)OOC(C)(C)CC,water,298,-5.460037419,mol/L
CC1=CC(C)(C)Nc2ccccc12,water,298,-5.238695804,mol/L
CC(C)CCCCCCOC(=O)CCCCC(=O)OCCCCCCC(C)C,water,298,-5.600567801,mol/L
CCCCCCCCCl,water,298,-5.172243789,mol/L
C[Si](C)(C)O[Si](C)(C)O[Si](C)(C)O[Si](C)(C)O[Si](C)(C)O[Si](C)(C)C,water,298,-5.661813632,mol/L
CCC(COP)(COS)COS.CC(COS)(COS)COC(=O)CCCC(=O)OCC(C)(COS)COS,water,298,-5.84194731,mol/L
B12B3B4B1C234,water,298,-4.742403021,mol/L
CC(C)(C)CC(C)(C)c1ccc(O)c(c1)n2nc3ccccc3n2,water,298,-5.509793728,mol/L
Cc1ccc(O)c(c1)n2nc3ccccc3n2,water,298,-5.352666728,mol/L
CC(C)(C)c1cc(CCC(=O)OCCSCCOC(=O)CCc2cc(c(O)c(c2)C(C)(C)C)C(C)(C)C)cc(c1O)C(C)(C)C,water,298,-5.808172472,mol/L
Cc1cc(CCC(=O)OCCOCCOCCOC(=O)CCc2cc(C)c(O)c(c2)C(C)(C)C)cc(c1O)C(C)(C)C,water,298,-5.768464941,mol/L
CCCCCCCCOc1ccc(c(O)c1)C(=O)c2ccccc2,water,298,-5.513798048,mol/L
CCCCCCC(CO)CCCC,water,298,-5.270303761,mol/L
CCCCCCCCCCCCC(CO)CCCCCCCCCC,water,298,-5.549815883,mol/L
CCCCCCCCCCCCCCC(CO)CCCCCCCCCCCC,water,298,-5.613599775,mol/L
CCCCC(CC)COCOCC(CC)CCCC,water,298,-5.435323474,mol/L
CCCCCCCCC(CO)CCCCCC,water,298,-5.384616815,mol/L
Cc1cc(n2nc3ccc(Cl)cc3n2)c(O)c(c1)C(C)(C)C,water,298,-5.499417627,mol/L
CCc1cc(Cc2cc(CC)cc(c2O)C(C)(C)C)c(O)c(c1)C(C)(C)C,water,298,-5.566509378,mol/L
CCCCCCCCCCCCCCCCC(CO)CCCCCCCCCCCCCC,water,298,-5.66920434,mol/L
CC(C)(C)c1cc(CCC(=O)NNC(=O)CCc2cc(c(O)c(c2)C(C)(C)C)C(C)(C)C)cc(c1O)C(C)(C)C,water,298,-5.742568034,mol/L
CC(C)(C)c1cc(CCC(=O)NCCCCCCNC(=O)CCc2cc(c(O)c(c2)C(C)(C)C)C(C)(C)C)cc(c1O)C(C)(C)C,water,298,-5.804113524,mol/L
CCCCCCCCCCCCCCCCCCNC(=O)NCCCNC(=O)NCCCCCCCCCCCCCCCCCC,water,298,-5.822918943,mol/L
Cc1c(Cc2cc(c(O)c(c2)C(C)(C)C)C(C)(C)C)c(C)c(Cc3cc(c(O)c(c3)C(C)(C)C)C(C)(C)C)c(C)c1Cc4cc(c(O)c(c4)C(C)(C)C)C(C)(C)C,water,298,-5.889422168,mol/L
CCCCC(CC)CN[S](=O)(=O)c1ccc(N)cc1,water,298,-5.453967767,mol/L
CCCCCCCCSc1nc(Nc2cc(c(O)c(c2)C(C)(C)C)C(C)(C)C)nc(SCCCCCCCC)n1,water,298,-5.770094649,mol/L
CC(C)(C)c1ccc2oc(nc2c1)c3sc(cc3)c4oc5ccc(cc5n4)C(C)(C)C,water,298,-5.634046793,mol/L
CCCCCCCCCC(O)=O.CCCCCCCC(O)=O.CCCCCC(O)=O.CCC(CO)(CO)CO.OC(=O)CCCCC(O)=O,water,298,-5.853064556,mol/L
O=C1OC(=O)c2ccc3c4ccc5C(=O)OC(=O)c6ccc(c7ccc1c2c37)c4c56,water,298,-5.593642663,mol/L
[O-][N+](=O)c1ccc(O[P](=S)(Oc2ccc(cc2)[N+]([O-])=O)Oc3ccc(cc3)[N+]([O-])=O)cc1,water,298,-5.678834198,mol/L
[Ba++].Cc1cc(c(N\N=C/2C(=O)C(=Cc3ccccc23)C([O-])=O)cc1Cl)[S]([O-])(=O)=O,water,298,-5.745185694,mol/L
[Ba++].[O-][S](=O)(=O)c1c(N\N=C\2C(=O)C=Cc3ccccc23)ccc4ccccc14.[O-][S](=O)(=O)c5c(N\N=C\6C(=O)C=Cc7ccccc67)ccc8ccccc58,water,298,-5.950428144,mol/L
CC(C)CCCCCCCCCCOC(=O)c1ccccc1C(=O)OCCCCCCCCCCC(C)C,water,298,-5.724958732,mol/L
[Ca++].[O-][S](=O)(=O)c1c(N\N=C\2C(=O)C=Cc3ccccc23)ccc4ccccc14.[O-][S](=O)(=O)c5c(N\N=C\6C(=O)C=Cc7ccccc67)ccc8ccccc58,water,298,-5.90030157,mol/L
[O--].[O--].[O--].[In+3].[In+3],water,298,-5.443471086,mol/L
CC(C)CCCCCCCCCCOC(=O)CCCCC(=O)OCCCCCCCCCCC(C)C,water,298,-5.708288297,mol/L
CCCCCCCCCCCCCCCCCCCCCCO,water,298,-5.514028148,mol/L
CCCCCCCCCCCCOC(=O)CCSCCC(=O)OCCCCCCCCCCCC,water,298,-5.711686622,mol/L
CCOC(=O)c1ccc(cc1)N=CN(C)c2ccccc2,water,298,-5.450777025,mol/L
CCCCCCCCCCCCCCCCO,water,298,-5.384616815,mol/L
CCCCCCCCCCCCCCCCOC(=O)OOC(=O)OCCCCCCCCCCCCCCCC,water,298,-5.756557,mol/L
CCCCCCCCCCCCCCCC[Si](OC)(OC)OC,water,298,-5.539863641,mol/L
CCCCCC=O.CCCCC=O.O=CCC=O,water,298,-5.412221914,mol/L
[O--].[O--].[K+].[Fe+3],water,298,-5.103601915,mol/L
[Li].O.[K].[Ti],water,298,-5.048911582,mol/L
CCCCCCCCCCCCCCCCCCCCO,water,298,-5.475024349,mol/L