Solute,Solvent,Temperature_K,Solubility,Units
CC(C)OC(=O)C(C)N(C(=O)C1=CC=CC=C1)C2=CC=C(F)C(=C2)Cl,water,298,-4.31,mol/L
CCO[P](=S)(OCC)SCN1N=NC2=CC=CC=C2C1=O,water,298,-4.52,mol/L
CC(C)(C)C(O)C(OC1=CC=C(C=C1)C2=CC=CC=C2)[N]3C=NC=N3,water,298,-4.83,mol/L
OC(C1=CC=CC=C1)C2=C(NC(=O)C3=CC=NC=C3)C=CC(=C2)Cl,water,298,-5.53,mol/L
CCO[P](=S)(OCC)OC1=NN(C(=O)C=C1)C2=CC=CC=C2,water,298,-3.53,mol/L
CO[P](=O)(OC1=C(Cl)C=C(Br)C(=C1)Cl)C2=CC=CC=C2,water,298,-4.99,mol/L
ClC1=C(Cl)C=C(OC2=C(Cl)C(=C(Cl)C(=C2Cl)Cl)Cl)C(=C1)Cl,water,298,-10.1,mol/L
ClC1=C(Cl)C(=C(OC2=C(Cl)C(=C(Cl)C(=C2Cl)Cl)Cl)C=C1)Cl,water,298,-10.6,mol/L
ClC1=C(Cl)C(=C(Cl)C(=C1)Cl)OC2=C(Cl)C(=C(Cl)C(=C2)Cl)Cl,water,298,-10.1,mol/L
CCO[P](=S)(OCC)OC1=CC2=C(C=C1)C(=C(Cl)C(=O)O2)C,water,298,-5.38,mol/L
CO\N=C(C)/C1=CC=CC(=C1C(=O)OC)OC2=NC(=CC(=N2)OC)OC,water,298,-3.31,mol/L
CC1(C)C(C=C(Cl)Cl)C1C(=O)OC(C#N)C2=CC(=C(F)C=C2)OC3=CC=CC=C3,water,298,-5.34,mol/L
CO[P](=S)(OC1=C(Cl)C=C(Br)C(=C1)Cl)C2=CC=CC=C2,water,298,-7.94,mol/L
COC1=CC2=C([NH]C(=N2)[S](=O)CC3=C(C)C(=C(C)C=N3)OC)C=C1,water,298,-4.28,mol/L
CCOC(=O)C(C)OC1=CC=C(OC2=NC3=C(C=C(Cl)C=C3)N=C2)C=C1,water,298,-5.97,mol/L
[NH]1C2=C(C=CC3=C2C=CC=C3)C4=C1C5=C(C=CC=C5)C=C4,water,298,-7.41,mol/L
NC1=NC2=C(N=C[N]2COCCOC(=O)C3=CC=C(CN4CCOCC4)C=C3)C(=O)N1,water,298,-2.75,mol/L
ClC1=C(Cl)C(=C(Cl)C(=C1)OC2=C(Cl)C(=C(Cl)C(=C2Cl)Cl)Cl)Cl,water,298,-11.5,mol/L
OCCN1CCN(CCCN2C3=C(SC4=C2C=C(Cl)C=C4)C=CC=C3)CC1,water,298,-4.62,mol/L
FC(F)C(F)(F)OC1=C(Cl)C=C(NC(=O)NC(=O)C2=C(F)C=CC=C2F)C=C1Cl,water,298,-5.82,mol/L
OC1=C(Br)C=C(\C=N\OC2=C(C=C(C=C2)[N+]([O-])=O)[N+]([O-])=O)C=C1Br,water,298,-5.19,mol/L
CC1COC(C[N]2C=NC=N2)(O1)C3=C(Cl)C=C(OC4=CC=C(Cl)C=C4)C=C3,water,298,-4.91,mol/L
O=C1C2=C(SC(=C(S2)C#N)C#N)C(=O)C3=C1C=CC=C3,water,298,-6.33,mol/L
CN(C)C1C2CC3C(O)C4=C(Cl)C=CC(=C4C(=O)C3=C(O)C2(O)C(=O)C(=C1O)C(N)=O)O,water,298,-2.49,mol/L
C[N]1N=C(C)C(=C1OCC(=O)C2=CC=CC=C2)C(=O)C3=CC=C(Cl)C=C3Cl,water,298,-2.65,mol/L
CCOC(=O)C1=C([N](C)N=C1)[S](=O)(=O)NC(=O)NC2=NC(=CC(=N2)OC)OC,water,298,-4.46,mol/L
CCOC(=O)C(C)OC(=O)C1=C(C=CC(=C1)OC2=C(Cl)C=C(C=C2)C(F)(F)F)[N+]([O-])=O,water,298,-6.66,mol/L
COC(=O)CSC1=CC(=C(F)C=C1Cl)N=C2SC(=O)N3CCCCN23,water,298,-5.8,mol/L
FC1=CC2=C(C=C1)N=C([N]3C=NC=N3)N(C2=O)C4=C(Cl)C=C(Cl)C=C4,water,298,-5.58,mol/L
CCOC(=O)C(C1=C(O)C2=C(OC1=O)C=CC=C2)C3=C(O)C4=C(OC3=O)C=CC=C4,water,298,-3.43,mol/L
CC(C)N=C1C=C2N(C3=CC=C(Cl)C=C3)C4=C(C=CC=C4)N=C2C=C1NC5=CC=C(Cl)C=C5,water,298,-6.24,mol/L
CC(=O)OC1C(=O)C2(C)C(O)CC3OCC3(OC(C)=O)C2C(OC(=O)C4=CC=CC=C4)C5(O)CC(OC(=O)C(O)C(NC(=O)C6=CC=CC=C6)C7=CC=CC=C7)C(=C1C5(C)C)C,water,298,-6.33,mol/L
CC(=C)C(C)=C,water,298,-2.4,mol/L
C1CCCNCC1,water,298,-0.49,mol/L
CC1CNCCN1,water,298,0.64,mol/L
CCC(C)(O)C#C,water,298,0.0,mol/L
CC(C)(C)C(C)(C)C,water,298,-4.87,mol/L
NC(CO)(CO)CO,water,298,0.66,mol/L
CC1CNC(C)CN1,water,298,0.49,mol/L
COC(N)=O,water,298,0.97,mol/L
OCC(CO)(CO)CO,water,298,-0.28,mol/L
CCCCCCCCC=O,water,298,-3.13,mol/L
NC(=O)CC#N,water,298,0.19,mol/L
CCC(C)(N)C(O)=O,water,298,0.38,mol/L
CCCC(=O)CCC,water,298,-1.48,mol/L
CC1(C)C2CCC(C2)C1=C,water,298,-4.47,mol/L
OC1CC(O)C(O)C(O)C1O,water,298,-0.17,mol/L
OC(=O)C(O)=O,water,298,-0.98,mol/L
CCC(CO)NCCNC(CC)CO,water,298,0.57,mol/L
N[C]12C[CH]3[CH2]C([CH2][CH](C3)C1)C2,water,298,-1.85,mol/L
CCCCCCCCCCCCCCCO,water,298,-6.41,mol/L
C\C(Cl)=C/C(O)=O,water,298,-0.75,mol/L
CN1CSC(=S)N(C)C1,water,298,-2.13,mol/L
I\C=C\I,water,298,-3.22,mol/L
CCCCCCCCCCCCCCCCO,water,298,-6.77,mol/L
CC(\C=N\O)=N/O,water,298,-0.35,mol/L
FC(F)(Cl)C(Cl)(Cl)Cl,water,298,-3.31,mol/L
OCC1(O)OCC(O)C(O)C1O,water,298,1.29,mol/L
CCCC(N)C(O)=O,water,298,-0.11,mol/L
CCCCCCCCCCCCCCCCCC,water,298,-7.63,mol/L
NCC(O)C(O)=O,water,298,-0.84,mol/L
CCCCCCCCCCCCCCCCCO,water,298,-7.51,mol/L
OCC(Br)(CO)[N+]([O-])=O,water,298,0.1,mol/L
CCCCCCCCCCCCCCCCCCO,water,298,-8.39,mol/L
C\C(Br)=C\C(O)=O,water,298,-0.6,mol/L
CCCCCCCCCCCCCCCCCCCC,water,298,-8.17,mol/L
CC(C(O)=O)C(O)=O,water,298,0.76,mol/L
CCC(Br)(CC)C(N)=O,water,298,-1.44,mol/L
CC(=O)NCC(O)=O,water,298,-0.73,mol/L
NCCCCCCCCCCC(O)=O,water,298,-2.8,mol/L
CC(=N\O)\C(C)=N\O,water,298,-2.16,mol/L
NC(=O)NCC(O)=O,water,298,-0.59,mol/L
CCCCCCCCCCCCC(O)=O,water,298,-3.81,mol/L
CCC(C(O)=O)C(O)=O,water,298,0.73,mol/L
C\C(=C\C(O)=O)C(O)=O,water,298,1.26,mol/L
CC(CC(O)=O)C(O)=O,water,298,0.48,mol/L
C\C(I)=C\C(O)=O,water,298,-1.16,mol/L
CCCCCCCCCCCCCCC(O)=O,water,298,-4.31,mol/L
NCC(=O)NCC(O)=O,water,298,0.1,mol/L
CC(CCC(O)=O)CC(O)=O,water,298,0.09,mol/L
CC1(C)CC(=O)CC(=O)C1,water,298,-1.53,mol/L
BrC(Br)(Br)Br,water,298,-3.14,mol/L
CCCC(C(O)=O)C(O)=O,water,298,0.68,mol/L
OC(=O)CCCCCCC(O)=O,water,298,-2.04,mol/L
OC(=O)CC(=C)C(O)=O,water,298,-0.19,mol/L
OC(=O)CCCCCCCCCCBr,water,298,-3.7,mol/L
CN(C)C(=O)NC1CCCCCCC1,water,298,-2.26,mol/L
IC(I)I,water,298,-3.6,mol/L
OC1CC(=CC(O)C1O)C(O)=O,water,298,0.01,mol/L
CC12C3CCC(O3)C1(C)C(=O)OC2=O,water,298,-3.82,mol/L
CCCCCCCCCCCCCCCCCCCCCCCCCC,water,298,-8.35,mol/L
CCCCC(C(O)=O)C(O)=O,water,298,0.44,mol/L
CCCCCCCCCCCCCCCCC(O)=O,water,298,-4.69,mol/L
OC(=O)CC(Cl)C(O)=O,water,298,0.07,mol/L
OC(=O)\C=C\C=C\C(O)=O,water,298,-2.85,mol/L
OC(C(O)=O)C(Cl)(Cl)Cl,water,298,0.36,mol/L
NCC[S](O)(=O)=O,water,298,-0.19,mol/L
OC(=O)CCCCCCCCC(O)=O,water,298,-2.31,mol/L
CCCCCCCCCCCCCCCCCC(O)=O,water,298,-4.98,mol/L
O=C1CCC(=O)N1,water,298,0.39,mol/L
CC(=O)OC1CC2CCC1(C)C2(C)C,water,298,-3.93,mol/L
NC(CCCC(O)=O)C(O)=O,water,298,-1.87,mol/L
O=C1NC=NC=C1,water,298,0.59,mol/L
O=C1NC=CC=N1,water,298,0.68,mol/L
ClCC[S](=O)CCCl,water,298,-1.16,mol/L
O=C1CCCCCCCCCCCCCCO1,water,298,-5.34,mol/L
ClC1=C(Cl)C(=O)C(=C(Cl)C1=O)Cl,water,298,-2.99,mol/L
NC1CONC1=O,water,298,-0.01,mol/L
OC(=O)CCCCCCCCCCC(O)=O,water,298,-3.76,mol/L
OC(=O)/C(S)=C/C1CCCCC1,water,298,-2.67,mol/L
OC(=O)C1CCC(=CC1)C(O)=O,water,298,-2.93,mol/L
OC(=O)CCCCCCCCCCCC(O)=O,water,298,-3.79,mol/L
OC(C(O)C(O)=O)C(O)=O,water,298,0.71,mol/L
CC(C)CNC(=O)N1CCNC1=O,water,298,-2.15,mol/L
CC1=CC=CC=C1CO,water,298,-1.09,mol/L
CCO[P](=O)(OCC)N=C1SCCS1,water,298,-2.59,mol/L
OC(=O)C1CCCCC1C(O)=O,water,298,-1.94,mol/L
CN(C)C(=O)NC1CC2CC1C3CCCC23,water,298,-3.17,mol/L
NC1=NC(=CC=C1)N,water,298,-0.08,mol/L
NC1=CC=CN=C1N,water,298,-1.75,mol/L
OC1=CC(=O)NC=C1,water,298,-1.25,mol/L
CC1(C)C(CCC1(C)C(O)=O)C(O)=O,water,298,-1.77,mol/L
NCC(O)C1=CC=CC=C1,water,298,-0.48,mol/L
O=C1CNC(=O)CN1,water,298,-0.84,mol/L
OC1=CC(=NC=N1)O,water,298,-1.65,mol/L
CCCCCCCCCCCCCCCCCC(=O)OC=C,water,298,-6.15,mol/L
CCCCCCCCCCCCCCCCCCCCCCCCCCCCCCCCCCCC,water,298,-8.48,mol/L
OC(=O)CC1(CC(O)=O)OCOC1=O,water,298,-0.63,mol/L
ClCC[S](=O)(=O)CCCl,water,298,-1.5,mol/L
O=C1NC(=O)C2(CCCC2)C(=O)N1,water,298,-3.06,mol/L
CC1=CC(=C(N)C=C1C)C,water,298,-1.95,mol/L
CC1=CC=C(O1)C(O)=O,water,298,-0.82,mol/L
CC1=CNC(=O)N=C1N,water,298,-1.44,mol/L
CCC(CC=C)(C(=O)NC(N)=O)C(=O)OC,water,298,-1.92,mol/L
NC1=NC(=O)NC=C1F,water,298,-0.94,mol/L
OC(=O)/C=C/C1=CC=CO1,water,298,-1.84,mol/L
OCC(O)C(O)C(O)C(=O)CO,water,298,0.32,mol/L
CNC(=O)O\N=C(CSC)/C(C)(C)C,water,298,-1.62,mol/L
NC1=CNC(=O)NC1=O,water,298,-2.41,mol/L
N#CC1=C(C=CC=C1)C#N,water,298,-2.38,mol/L
CN(C)C(CSC(N)=O)CSC(N)=O,water,298,-0.07,mol/L
OC(=O)CCC1=CC=CC=C1,water,298,-1.21,mol/L
O=CC(=O)C1=CC=CC=C1,water,298,-0.74,mol/L
O=CC1=CC=C(C=O)C=C1,water,298,-2.83,mol/L
OC(=O)C1=CC=C(Cl)O1,water,298,-1.69,mol/L
NC1=NC(=NC(=O)N1)N,water,298,-3.23,mol/L
OCC1OC(OC2C(O)C(O)C(O)OC2CO)C(O)C(O)C1O,water,298,-0.24,mol/L
O=CC1=CC=CC=C1C=O,water,298,-1.34,mol/L
CCCCNC(=O)OCC(C)(CCC)COC(N)=O,water,298,-2.74,mol/L
OC1=NC(=NC(=N1)O)O,water,298,-1.41,mol/L
O=C1CSC(=S)N1,water,298,-1.77,mol/L
OC(=O)CCCC1=CC=CC=C1,water,298,-1.78,mol/L
O=C1NC(=O)C2(CCCCCC2)C(=O)N1,water,298,-2.98,mol/L
NCCC1=CC(=C(O)C=C1)O,water,298,0.12,mol/L
CCC(=O)NC1=CC=CC=C1,water,298,-1.55,mol/L
CCC(C)(C)C1=CC=C(O)C=C1,water,298,-2.99,mol/L
CCCC1(CC)C(=O)NC(=S)NC1=O,water,298,-2.8,mol/L
OC1=C(O)C=C(C=O)C=C1,water,298,-0.44,mol/L
CC12CCC(O)CC1CCC3C2CCC4(C)C3CCC4=O,water,298,-4.16,mol/L
CC12CCC3C(CCC4CC(=O)CCC34C)C1CC=C2,water,298,-6.07,mol/L
CN(C)C(=O)OC1=CC(=O)CC(C)(C)C1,water,298,-0.85,mol/L
CCCCC1(CC=C)C(=O)NC(=O)NC1=O,water,298,-2.17,mol/L
CC1=CC(=O)NC(=S)N1,water,298,-2.43,mol/L
CC1=C(C)C=C(C=C1)C(O)=O,water,298,-3.16,mol/L
CC1=CC(=C(C=C1)C(O)=O)C,water,298,-2.97,mol/L
CC1=CC(=C(C)C=C1)C(O)=O,water,298,-2.92,mol/L
CNC(=O)C1=CC=C(N)C=C1,water,298,-1.24,mol/L
OC1=CC=C(C=C1)N=C=S,water,298,-2.67,mol/L
CCCCC1(CC)C(=O)NC(=S)NC1=O,water,298,-3.14,mol/L
OC1=CC=CC(=C1)N=C=S,water,298,-1.99,mol/L
CC1=C(OCC(O)CO)C=CC=C1,water,298,-1.19,mol/L
CC12CCC3C(CCC4=CC(=O)CCC34)C1CCC2O,water,298,-3.02,mol/L
CC1C(=O)NC(=O)NC1=O,water,298,-1.13,mol/L
CC1NC(=O)C(C)NC1=O,water,298,-0.75,mol/L
OC(=O)C(=C)C1=CC=CC=C1,water,298,-2.06,mol/L
CC(C)C1=C(Br)C=CC=C1,water,298,-4.19,mol/L
CNC1=C(C=CC=C1)C(O)=O,water,298,-2.88,mol/L
CC(C)C1=CC2=CCC3C(C)(CCCC3(C)C(O)=O)C2CC1,water,298,-3.8,mol/L
OC(=O)C(=O)C1=CC=CC=C1,water,298,-0.37,mol/L
CC12CCC(O)CC1CCC3C4CCC(=O)C4(C)CC(O)C23,water,298,-3.59,mol/L
OC(=O)C1=CC(=CC=C1)C#N,water,298,-2.63,mol/L
CC(C)C1=CC=C(C=C1)C(O)=O,water,298,-3.04,mol/L
CNC(=O)NC(=O)C(C)(C(=O)OC)C1=CCCCC1,water,298,-2.68,mol/L
CCCCCC1(CC)C(=O)NC(=S)NC1=O,water,298,-3.71,mol/L
OCNC(=S)C1=CC=CC=C1,water,298,-1.14,mol/L
CCCCCC1=C(O)C=C(O)C=C1,water,298,-1.96,mol/L
OC(=O)CCCNC(=O)N[C]12C[CH]3[CH2]C([CH2][CH](C3)C1)C2,water,298,-1.6,mol/L
CC1=CC=CC(=C1O)C(O)=O,water,298,-2.04,mol/L
CC1=CC=CC(=C1C(O)=O)O,water,298,-2.04,mol/L
CCCCN(CCN(CCCC)C(=O)N1CCOCC1)C(=O)N2CCOCC2,water,298,0.1,mol/L
CC(=O)NC1=CC=C(Cl)C=C1,water,298,-2.92,mol/L
CNC(=O)C(C)SCCS[P](=O)(OC)OC,water,298,0.54,mol/L
OC(=O)C1=C(Br)C=CO1,water,298,-1.17,mol/L
CN(C)C1=C(C)N=C(Cl)N=C1,water,298,-1.26,mol/L
O/N=C/C1=CC=C(O1)[N+]([O-])=O,water,298,-2.19,mol/L
CCCCCCC1(CC)C(=O)NC(=S)NC1=O,water,298,-4.08,mol/L
O=C1NC(=O)C2(CCCCCCCCC2)C(=O)N1,water,298,-4.59,mol/L
CC12CCC3C(CC=C4CC(CCC34C)OC=O)C1CCC2=O,water,298,-4.41,mol/L
OC(=O)C1=CC=C(O)C=C1O,water,298,-1.41,mol/L
CC(C)CC1NC(=O)CNC1=O,water,298,-1.25,mol/L
O[S](=O)(=O)C[S](O)(=O)=O,water,298,0.69,mol/L
CC(C)CCCC(C)C1CCC2C3CC=C4CC(O)CCC4(C)C3CCC12C,water,298,-7.36,mol/L
O[S](=O)(=O)C1=NC=C[NH]1,water,298,-0.3,mol/L
OC(=O)/C=C/C=C/C1=CC=CC=C1,water,298,-3.64,mol/L
CCCC1=CC(=O)NC(=S)N1,water,298,-2.15,mol/L
CC12CCC(=O)CC1CCC3C4CCC(OC=O)C4(C)CCC23,water,298,-5.32,mol/L
CCOC1=CC=C(C=C1)N=C=S,water,298,-4.26,mol/L
CNC(=O)NC(=O)C(C)(C(=O)OCOC)C1=CCCCC1,water,298,-2.42,mol/L
OC(=O)C1=C(O)C=CC(=C1)Cl,water,298,-2.77,mol/L
COC1=CC=C(C=C1)C(=O)NCO,water,298,-1.22,mol/L
COC(=O)C1=CC=C(C=C1)N(C)C,water,298,-3.3,mol/L
OC(=O)/C=C(Cl)/C1=CC=CC=C1,water,298,-2.77,mol/L
COC1=CC=CC(=C1)C(=O)NCO,water,298,-1.29,mol/L
CC1=C(CCC(O)=O)C(=O)NC1=O,water,298,-0.67,mol/L
CCOC1=CC=C(NC(N)=O)C=C1,water,298,-2.17,mol/L
OC1=C(Br)C=C(C=O)C=C1,water,298,-2.18,mol/L
CCCCCCC1=CC=C(C=C1)C(O)=O,water,298,-3.65,mol/L
CCOC1=C(OC)C=C(C=O)C=C1,water,298,-2.19,mol/L
CC1=NC2=C([NH]1)C=NC=N2,water,298,-0.41,mol/L
BrC1=CC=C(C=C1)N=C=S,water,298,-4.27,mol/L
CN1C(=O)C23CC4=CC=CC(O)C4N2C(=O)C1(CO)SS3,water,298,-3.67,mol/L
CC1=NC=NC2=C1N=C[NH]2,water,298,0.17,mol/L
OC(=O)C1=CN=C(C=C1)C(O)=O,water,298,-2.13,mol/L
CC12CCC3C(CCC4=CC(=O)CCC34C)C1CCC2OC=O,water,298,-4.93,mol/L
CC(=O)C1=CC=C(C=C1)N=C=S,water,298,-4.02,mol/L
NC1=NC2=C(C=N1)N=C[NH]2,water,298,-1.21,mol/L
NC1=NC2=C([NH]1)N=CN=C2,water,298,-2.43,mol/L
OC(=O)/C(S)=C/C1=CC=CC=C1,water,298,-2.96,mol/L
OC(=O)C(S)CC1=CC=CC=C1,water,298,-1.56,mol/L
OC(=O)C1=CC(=CN=C1)C(O)=O,water,298,-2.22,mol/L
OC(=O)C1=CC(=NC=C1)C(O)=O,water,298,-1.83,mol/L
O=C1NC2=C(C=N1)N=C[NH]2,water,298,-1.72,mol/L
O=C1NC2=C(N1)N=CN=C2,water,298,-1.52,mol/L
OC(=O)CCCOC1=CC=C(Cl)C=C1,water,298,-3.29,mol/L
OC(=O)C1=C(C=CC=C1)C(F)(F)F,water,298,-1.6,mol/L
OC(=O)C1=CC=CN=C1C(O)=O,water,298,-1.48,mol/L
O=C(NCN1CCCCC1)C2=CC=CC=C2,water,298,-2.15,mol/L
CC(=O)OC1=CC=C(C=C1)C(C)=O,water,298,-1.52,mol/L
CNC1=NC(=NC(=N1)Cl)NC(C)C,water,298,-2.89,mol/L
COC1=CC(=C(OC)C=C1Cl)Cl,water,298,-4.41,mol/L
CC(=O)OC1=CC=C(C=C1)C(N)=O,water,298,-1.64,mol/L
CC(=O)N1C=C(F)C(=O)NC1=O,water,298,-0.6,mol/L
[O-][N+](=O)C1=CC=CC(=C1)N=C=S,water,298,-3.55,mol/L
NCCC1=C[NH]C2=C1C=CC=C2,water,298,-3.3,mol/L
CC(CCC(O)=O)C1CCC2C3CCC4CC(O)CCC4(C)C3CCC12C,water,298,-7.34,mol/L
CC(=O)N1C(=O)NC=C(F)C1=O,water,298,-0.6,mol/L
CC(CCC(O)=O)C1CCC2C3C(O)CC4CCCCC4(C)C3CCC12C,water,298,-6.46,mol/L
NC(=S)C1=C(Cl)C=CC=C1Cl,water,298,-2.34,mol/L
CC(=O)OC(OC(C)=O)C(OC(C)=O)OC(C)=O,water,298,-4.52,mol/L
S=C=NC1=CC=CC(=C1)N=C=S,water,298,-4.7,mol/L
CC(C)(C)NCC(O)C1=CC=C(O)C(=C1)CO,water,298,-1.22,mol/L
CC(=O)OC1CCC2(C)C3CCC4(C)C(CCC4=O)C3CC=C2C1,water,298,-4.53,mol/L
OC1=CC=CC(=C1)NN=C(C#N)C#N,water,298,-2.95,mol/L
COC1=NC2=C([NH]C=N2)C=N1,water,298,-1.48,mol/L
CCC1=CC(=CC(=C1)OC(=O)NC)CC,water,298,-3.32,mol/L
NC(CSSCC(N)C(O)=O)C(O)=O,water,298,-3.6,mol/L
CC(OC1=CC(=CC=C1)Cl)C(O)=O,water,298,-2.22,mol/L
CCOC(=O)C1=CC(=C(O)C=C1)OC,water,298,-1.72,mol/L
CC(=O)NC1=CC=CC(=C1)N=C=S,water,298,-3.53,mol/L
COC1=NC=NC2=C1[NH]C=N2,water,298,-1.53,mol/L
CC(OC1=CC=CC=C1Cl)C(O)=O,water,298,-2.22,mol/L
OCC1=NC2=C([NH]1)C=NC=N2,water,298,-1.52,mol/L
COC(=O)C1=CC=C(NC(C)=O)C=C1,water,298,-1.9,mol/L
[O-][N+](=O)C1C(=O)NC(=O)NC1=O,water,298,-2.32,mol/L
CC1=NC2=C(C=NC=N2)N=C1,water,298,-0.01,mol/L
CC1=NC2=C(C=N1)N=CC=N2,water,298,-0.09,mol/L
NC1=CC(=CC(=C1Cl)C(O)=O)Cl,water,298,-3.24,mol/L
CC(CCC(O)=O)C1CCC2C3CC(O)C4CC(O)CCC4(C)C3CCC12C,water,298,-4.89,mol/L
CC(C)NC1=NC(=NC(=O)N1)NC(C)C,water,298,-2.81,mol/L
ClC1=CC=C(NN=C(C#N)C#N)C=C1,water,298,-4.36,mol/L
[O-][N+](=O)C1=CC2=C(COC2=O)C=C1,water,298,-2.65,mol/L
NC1=CC=CC(=C1)[S](O)(=O)=O,water,298,-1.48,mol/L
CC(=O)OC1CCC2C3CCC4CC(=O)CCC4(C)C3CCC12C,water,298,-5.35,mol/L
OC(=O)CC(C(CC(O)=O)C(O)=O)C(O)=O,water,298,-0.18,mol/L
OC(=O)C1=CC=C(O)C(=C1)C(O)=O,water,298,-1.78,mol/L
COC(=O)C1=CC=C(OC(C)=O)C=C1,water,298,-2.5,mol/L
CC1=NC=NC2=C1N=CC=N2,water,298,-0.49,mol/L
CCC(=O)OC1CCC2(C)C3CCC4(C)C(CCC4=O)C3CC=C2C1,water,298,-4.69,mol/L
NC1=NC2=C(C=NC=N2)N=C1,water,298,-2.31,mol/L
NC1=NC2=C(N=CN=C2)N=C1,water,298,-2.34,mol/L
NC1=NC2=C(C=N1)N=CC=N2,water,298,-2.3,mol/L
CCCC(=O)NNC(=O)C1=CC=NC=C1,water,298,-0.32,mol/L
[O-][N+](=O)C1=CC(=C(F)C=C1)[N+]([O-])=O,water,298,-2.67,mol/L
CC(=O)OC1=CC=C(NC(N)=O)C=C1,water,298,-2.49,mol/L
OC(=O)C1=C(O)C(=CC=C1)C(O)=O,water,298,-2.11,mol/L
CCCC(C)(C)C(=O)NC1=CC=C(Cl)C=C1,water,298,-4.02,mol/L
NC1=NC2=C(N=C[NH]2)C(=N1)N,water,298,-1.8,mol/L
CCNC1=NC(=NC(=O)N1)N(CC)CC,water,298,-3.64,mol/L
IC1=CC=CC(=C1)N=C=S,water,298,-4.68,mol/L
NC1=NC=NC2=C1N=CC=N2,water,298,-2.31,mol/L
CC1=CC2=NC(=CC=C2C=C1)C,water,298,-1.94,mol/L
CC1CCC2(OC1)OC3CC4C5CC=C6CC(O)CCC6(C)C5CCC4(C)C3C2C,water,298,-7.32,mol/L
O=C1NC2=C(C=NC=N2)N=C1,water,298,-2.12,mol/L
O=C1NC2=C(N=CN=C2)N=C1,water,298,-2.71,mol/L
CC(OC(=O)NC1=CC(=CC=C1)Cl)C#C,water,298,-2.62,mol/L
O=C1NC2=C(C=N1)N=CC=N2,water,298,-2.0,mol/L
OC(=O)C1=CC=CC(=C1C(O)=O)O,water,298,-2.11,mol/L
CCOC(=O)C1=CC=C(C=C1)N=C=S,water,298,-4.05,mol/L
CCCNC1=NC(=NC(=N1)Cl)NC(C)C,water,298,-3.74,mol/L
NC1=NC(=O)NC2=C1N=C[NH]2,water,298,-3.38,mol/L
O=C1NC2=C(N1)C=NC(=O)N2,water,298,-3.6,mol/L
O=C1NC=NC2=C1N=CC=N2,water,298,-1.47,mol/L
CC(C#C)N(C(=O)CCl)C1=CC=CC=C1,water,298,-2.65,mol/L
OC(=O)C1=C(Cl)C=C(Cl)C(=C1)Cl,water,298,-2.45,mol/L
C1=CC=C(N=C1)C2=CN=CC=C2,water,298,-0.59,mol/L
OC(=O)COC1=CC(=CC(=C1)Cl)Cl,water,298,-2.36,mol/L
O=C1NC2=C(N1)C(=O)NC=N2,water,298,-2.96,mol/L
CN(C)C(=O)CCCOC(=O)C1=CC=CC=C1,water,298,-1.23,mol/L
CC(=O)OC(C(O)=O)C1=CC=CC=C1,water,298,-1.23,mol/L
OC(=O)COC1=C(Cl)C=CC(=C1)Cl,water,298,-2.62,mol/L
OC(=O)COC1=C(Cl)C(=CC=C1)Cl,water,298,-2.81,mol/L
CC(C)NC1=NC(=NC(=N1)NC2CC2)Cl,water,298,-4.52,mol/L
OC(=O)C1=CC(=O)C=C(O1)C(O)=O,water,298,-1.11,mol/L
OC(=O)COC1=C(Cl)C=CC=C1Cl,water,298,-2.15,mol/L
CN(C)C1=NC=NC2=C1N=C[NH]2,water,298,-1.3,mol/L
CC(OC1=C(C)C=C(Cl)C=C1)C(O)=O,water,298,-2.4,mol/L
CCCCC(=O)NNC(=O)C1=CC=NC=C1,water,298,-1.01,mol/L
CC(=O)OC1CCC2C3CCC4=CC(=O)CCC4(C)C3CCC12C,water,298,-5.21,mol/L
COC1=CC=C2COC(=O)C2=C1OC,water,298,-1.89,mol/L
CCNC(=O)CS[P](=S)(OC)OC,water,298,-1.46,mol/L
CCCC(=O)N1C(=O)NC=C(F)C1=O,water,298,-1.28,mol/L
CCNC1=NC(=NC(=N1)OC)NC(C)CC,water,298,-2.56,mol/L
CCC(=O)OC1=CC=C(NC(C)=O)C=C1,water,298,-2.72,mol/L
CC1=CC=C(C=C1)[S](=O)(=O)NN,water,298,-1.48,mol/L
CCC(=O)NC1=NC(=C(Cl)S1)C,water,298,-3.06,mol/L
CC(CCC(O)=O)C1CCC2C3C(O)C(O)C4CC(O)CCC4(C)C3CCC12C,water,298,-4.35,mol/L
BrC1=C(Br)C(=CC=C1)Br,water,298,-5.04,mol/L
ClC1=NC2=C(C=NC=N2)N=C1,water,298,-0.88,mol/L
ClC1=NC2=C(N=CN=C2)N=C1,water,298,-1.12,mol/L
ClC1=NC2=C(C=N1)N=CC=N2,water,298,-0.71,mol/L
CCCC(=O)OC1CCC2C3CCC4=CC(=O)CCC4C3CCC12C,water,298,-5.91,mol/L
CC1=CC(=O)C2=C(N1)C=CC=C2,water,298,-1.2,mol/L
CCCCC(=O)OC1CCC2(C)C3CCC4(C)C(CCC4=O)C3CC=C2C1,water,298,-4.76,mol/L
CNC(=S)N(C)C1=C(C)C=C(Cl)C=C1,water,298,-3.66,mol/L
O[S](=O)(=O)C1=CC=C(C=C1)[N+]#N,water,298,-2.42,mol/L
CNC1=NC2=C(C=N1)N=CC=N2,water,298,-1.71,mol/L
CC1=C(CCCO1)C(=O)NC2=CC=CC=C2,water,298,-2.56,mol/L
COC(=O)OC1=CC=C(NC(C)=O)C=C1,water,298,-1.69,mol/L
CC1=C(C=C(N)C=C1)[S](O)(=O)=O,water,298,-1.62,mol/L
CCCOC(=O)C1=CC=C(NC(C)=O)C=C1,water,298,-3.29,mol/L
CCC(=O)OCN1C(=O)NC=C(F)C1=O,water,298,-0.77,mol/L
COC1=NC2=C(N=CN=C2)N=C1,water,298,-1.14,mol/L
COC1=NC2=C(C=NC=N2)N=C1,water,298,-0.91,mol/L
COC1=NC2=C(C=N1)N=CC=N2,water,298,-1.11,mol/L
CC1=CC(=C(N)C=C1)[S](O)(=O)=O,water,298,-1.57,mol/L
CCCCCC(=O)NNC(=O)C1=CC=NC=C1,water,298,-1.24,mol/L
CNC(=O)OC1=CC(=C(N(C)C)C(=C1)C)C,water,298,-3.35,mol/L
COC(=O)C(N)CC1=CC(=C(O)C=C1)O,water,298,0.48,mol/L
CNC(=O)OC1=CC(=CC=C1)N=CN(C)C,water,298,-1.55,mol/L
CC1=NC2=C(N=CN=C2)N=C1C,water,298,-0.46,mol/L
COC1=NC=NC2=C1N=CC=N2,water,298,-1.12,mol/L
S=C1NC2=C(C=NC=N2)N=C1,water,298,-2.71,mol/L
S=C1NC2=C(C=N1)N=CC=N2,water,298,-2.68,mol/L
C[N+](C)(C)C(CC1=CN=C(S)[NH]1)C([O-])=O,water,298,-0.46,mol/L
CCCNC(=O)N1C=C(F)C(=O)NC1=O,water,298,-1.83,mol/L
CCCCC(=O)N1C(=O)NC=C(F)C1=O,water,298,-2.3,mol/L
OCC1OC(C(O)C1O)N2C=CC(=O)CC2=O,water,298,-0.77,mol/L
CCCC(=O)OC1=CC=C(NC(C)=O)C=C1,water,298,-2.83,mol/L
CN1C(=O)C=NC2=C1N=CN=C2,water,298,-0.92,mol/L
CC(=O)OC1(C)CCC2C3CCC4=CC(=O)CCC4(C)C3CCC12C,water,298,-5.28,mol/L
CN1C=NC2=C(N=CC=N2)C1=O,water,298,-1.07,mol/L
OCC1OC(OCC2OC(OC3(CO)OC(CO)C(O)C3O)C(O)C(O)C2O)C(O)C(O)C1O,water,298,0.3,mol/L
NC1=NC2=C(N=C[NH]2)C(=S)N1,water,298,-3.31,mol/L
CCOC(=O)OCOC1=CC=C(NC(C)=O)C=C1,water,298,-2.43,mol/L
S=C1NC=NC2=C1N=CC=N2,water,298,-2.65,mol/L
CC12CC(=O)C3C(CCC4=CC(=O)CCC34C)C1CCC2=O,water,298,-3.48,mol/L
CC(C)(C)C(=O)OC1(CCC2C3CCC4=CC(=O)CCC4C3CCC12C)C#C,water,298,-7.16,mol/L
NNC1=NC=NC2=NC=CN=C12,water,298,-1.86,mol/L
CC(C)(C)C(=O)OC1=C(C=CC=C1)C(O)=O,water,298,-3.01,mol/L
CCCCCCC(=O)NNC(=O)C1=CC=NC=C1,water,298,-2.1,mol/L
ClC1=C(Cl)C2(Cl)C3CO[S](=O)(=O)OCC3C1(Cl)C2(Cl)Cl,water,298,-5.95,mol/L
NC1=NC2=C([NH]1)N=C(N)N=C2N,water,298,-1.52,mol/L
CC1=NC2=C(N=C1)C(=O)NC=N2,water,298,-1.56,mol/L
CCCCOC(=O)C1=CC=C(NC(C)=O)C=C1,water,298,-3.46,mol/L
CCOC(=O)OC1=CC=C(NC(C)=O)C=C1,water,298,-2.35,mol/L
CC1=NC2=C(N=CNC2=O)N=C1,water,298,-1.65,mol/L
NC1=NC2=C(N=CC=N2)C(=N1)N,water,298,-2.69,mol/L
CCCC(=O)OC1CCC2C3CCC4=CC(=O)CCC4(C)C3CCC12C,water,298,-5.93,mol/L
CCCC(=O)OCN1C(=O)NC=C(F)C1=O,water,298,-1.13,mol/L
CC(=O)C1=CC=C(NN=C(C#N)C#N)C=C1,water,298,-2.71,mol/L
NC1=NC(=O)NC2=C1N=CC=N2,water,298,-3.36,mol/L
CC(C)N1C(=O)NC(=C(Br)C1=O)C,water,298,-2.06,mol/L
NC1=NC(=O)C2=C(N1)N=CC=N2,water,298,-3.97,mol/L
CC(=O)NC(=O)COC(=O)C1=CC=CC=C1,water,298,-2.4,mol/L
O=C1NC2=C(NC1=O)N=CN=C2,water,298,-2.69,mol/L
CC(=O)OC1=CC=C(C=C1)\C=N\NC(N)=O,water,298,-2.84,mol/L
O=C1NC2=C(N=C1)C(=O)NC=N2,water,298,-2.82,mol/L
CN(C)C1=NC2=C(C=NC=N2)N=C1,water,298,-0.09,mol/L
CN(C)C1=NC2=C(C=N1)N=CC=N2,water,298,0.36,mol/L
O=C1NC2=C(N=CNC2=O)N=C1,water,298,-2.96,mol/L
O=C1NC(=O)C2=C(N1)N=CC=N2,water,298,-2.12,mol/L
OCC1=C(Cl)C(=C(Cl)C(=C1Cl)Cl)Cl,water,298,-5.15,mol/L
CCCCCCCC(=O)NNC(=O)C1=CC=NC=C1,water,298,-2.91,mol/L
CCCCC(=O)OC1CCC2C3CCC4=CC(=O)CCC4(C)C3CCC12C,water,298,-6.19,mol/L
COC1=C(OC)C(=C(C=O)C=C1)C(O)=O,water,298,-1.93,mol/L
CN(C)C1=NC=NC2=C1N=CC=N2,water,298,-1.03,mol/L
CCCCN(CC)C1=NC(=NC(=N1)N=[N+]=[N-])N,water,298,-3.52,mol/L
CCN(CC)C1=NC(=NC(=N1)Cl)N(CC)CC,water,298,-4.46,mol/L
[O-][N+](=O)C1=CC=C(N2CC2)C(=C1)[N+]([O-])=O,water,298,-3.0,mol/L