Solute,Solvent,Temperature_K,Solubility,Units
Clc1cc(Cl)c(Cl)c(c1)c2c(Cl)c(Cl)c(Cl)c(Cl)c2Cl,water,298,-9.42,mol/L
CCOC(=O)CNc1nc(Cl)nc(NC(C)C)n1,water,298,-2.5622,mol/L
COc1ccc(NC(=N)Nc2ccc(OC)cc2)cc1,water,298,-2.7345,mol/L
CC1(C)C(C=C(Cl)Cl)C1C(=O)OC(C#N)c2ccc(F)c(Oc3ccccc3)c2,water,298,-8.1607,mol/L
CC[S](=O)(=O)Oc1ccc2OCC(C)(C)c2c1,water,298,-2.9921,mol/L
CC(=O)NC(=O)COC(=O)c1ccccc1,water,298,-2.4003,mol/L
CCCOCC(=Nc1ccc(Cl)cc1C(F)(F)F)n2ccnc2,water,298,-1.4419,mol/L
Clc1ccc(Oc2ccccc2Cl)c(Cl)c1,water,298,-4.9499,mol/L
CC(C)N1C(=O)N(CSC1=NC(C)(C)C)c2ccccc2,water,298,-5.5307,mol/L
Nc1c(Cl)c(F)nc(OCC(O)=O)c1Cl,water,298,-3.4475,mol/L
CC(C)C(Nc1ccc(cc1Cl)C(F)(F)F)C(=O)OC(C#N)c2cccc(Oc3ccccc3)c2,water,298,-8.0025,mol/L
OCC(Cl)(Cl)Br,water,298,-0.4424,mol/L
Clc1cccc(c1)N(C2CCOC2=O)C(=O)C3CC3,water,298,-2.6878,mol/L
CC(CC(C)(C(O)=O)C(O)=O)C(O)=O,water,298,-0.1086,mol/L
OC(=O)c1occ(Cl)c1Cl,water,298,-1.8263,mol/L
Clc1cc(Cl)cc(c1)c2c(Cl)c(Cl)c(Cl)c(Cl)c2Cl,water,298,-9.1,mol/L
COC(=O)C(C)Oc1ccc(Oc2ncc(cc2Cl)C(F)(F)F)cc1,water,298,-4.6064,mol/L
CCCCOC(=O)C(C)Oc1ccc(Oc2ccc(cn2)C(F)(F)F)cc1,water,298,-5.5836,mol/L
COC(=O)c1ccc(C)cc1C2=NC(C)(C(C)C)C(=O)N2,water,298,-2.53,mol/L
COC(=O)c1cc(C)ccc1C2=NC(C)(C(C)C)C(=O)N2,water,298,-2.3262,mol/L
CC(C)C(C(=O)OC(C#N)c1cccc(Oc2ccccc2)c1)c3ccc(OC(F)F)cc3,water,298,-6.8765,mol/L
CCCCCCCCOC(=O)c1cccnc1,water,298,-3.0929,mol/L
Clc1ccc(Cl)c(c1)c2cccc(Cl)c2Cl,water,298,-6.2301,mol/L
Clc1ccccc1c2cc(Cl)c(Cl)cc2Cl,water,298,-7.2505,mol/L
Clc1ccccc1c2cc(Cl)c(Cl)c(Cl)c2,water,298,-6.9069,mol/L
Clc1ccc(Cl)c(c1)c2cc(Cl)c(Cl)c(Cl)c2,water,298,-7.3149,mol/L
[H+].[H+].[Cl-].[Cl-].OCCNCCNc1ccc(NCCNCCO)c2C(=O)c3c(O)ccc(O)c3C(=O)c12,water,298,-1.8388,mol/L
CCSC(=S)NC(C)C(O)=O,water,298,-1.2343,mol/L
ClCCN(CCCl)[P]1(=O)NCCCCO1,water,298,-0.9624,mol/L
CCCc1sc(N[S](=O)(=O)c2ccc(N)cc2)nn1,water,298,-3.3075,mol/L
CCOC(=O)[C@@H](C)Oc1ccc(Oc2oc3cc(Cl)ccc3n2)cc1,water,298,-5.6042,mol/L
Cn1nc(C)c(C(=O)c2ccc(Cl)cc2Cl)c1OCC(=O)c3ccccc3,water,298,-2.6514,mol/L
COC(=O)C(C)N(C(=O)Cc1ccccc1)c2c(C)cccc2C,water,298,-3.9442,mol/L
CC1(C)C(C=C(Cl)Cl)C1C(=O)OC(C#N)c2cccc(Oc3ccccc3)c2,water,298,-6.5587,mol/L
NC(=O)C(=NO)C(N)=O,water,298,-0.0384,mol/L
OC(=O)C(Br)=C(Br)Br,water,298,-1.3593,mol/L
OC(=O)C(Br)=C(Br)I,water,298,-1.0197,mol/L
CC[S](=O)(=O)N[S](=O)(=O)CC,water,298,0.5413,mol/L
CCOC(=O)C1(C)OC(=O)N(C1=O)c2cc(Cl)cc(Cl)c2,water,298,-4.0162,mol/L
[O-][n+]1nc(nc2ccc(Cl)cc12)n3ccnc3,water,298,-3.8624,mol/L
CCOC(=O)NCCOc1ccc(Oc2ccccc2)cc1,water,298,-4.7009,mol/L
CCCCN(CCOC(C)=O)c1ccc(N=Nc2c(cc(cc2C#N)[N+]([O-])=O)C#N)c(C)c1,water,298,-8.8809,mol/L
FC(F)(F)c1nc(Cl)sc1C(=O)OCc2ccccc2,water,298,-5.8085,mol/L
CC=Cc1ccc(O)c(O)c1,water,298,-1.3505,mol/L
CC(C)=CC1C(C(=O)OCN2C(=O)CN(CC#C)C2=O)C1(C)C,water,298,-3.5321,mol/L
CN(C(=O)COc1sc2ccccc2n1)c3ccccc3,water,298,-4.8727,mol/L
Clc1cccc(c1)c2cc(Cl)c(Cl)cc2Cl,water,298,-7.1299,mol/L
Clc1ccccc1c2c(Cl)c(Cl)cc(Cl)c2Cl,water,298,-7.3999,mol/L
Clc1ccc(c(Cl)c1Cl)c2c(Cl)cccc2Cl,water,298,-6.7798,mol/L
CCCCCCOC(=O)C(C)OC(=O)C(C)O,water,298,-2.4884,mol/L
Cc1cc(C)nc(n1)C(N)=O,water,298,0.1216,mol/L
Fc1ccc(cc1)C(=O)C2CCN(CC2)CCN3C(=O)Nc4ccccc4C3=O,water,298,-4.5971,mol/L
Nc1c(Cl)c(Oc2ccccc2)ccc1[N+]([O-])=O,water,298,-5.0248,mol/L
CCOc1ccc(NC(=O)NN)cc1,water,298,-1.6471,mol/L
Clc1ccccc1c2nnc(nn2)c3ccccc3Cl,water,298,-5.4817,mol/L
COC(=O)c1ccccc1[S](=O)(=O)NC(=O)Nc2nc(C)cc(C)n2,water,298,-3.1742,mol/L
Clc1cccc(c1)c2ccc(Cl)c(Cl)c2Cl,water,298,-6.77,mol/L
Clc1ccc(cc1)c2cc(Cl)cc(Cl)c2Cl,water,298,-6.77,mol/L
Clc1cccc(c1)c2c(Cl)c(Cl)cc(Cl)c2Cl,water,298,-7.76,mol/L
Clc1ccc(cc1)c2cc(Cl)c(Cl)c(Cl)c2Cl,water,298,-7.3102,mol/L
Clc1ccc(cc1)c2c(Cl)cc(Cl)c(Cl)c2Cl,water,298,-7.95,mol/L
Clc1ccc(cc1Cl)c2c(Cl)cc(Cl)c(Cl)c2Cl,water,298,-7.6505,mol/L
Clc1ccc(cc1Cl)c2c(Cl)c(Cl)cc(Cl)c2Cl,water,298,-8.48,mol/L
Clc1ccc(Cl)c(c2cc(Cl)c(Cl)c(Cl)c2)c1Cl,water,298,-8.27,mol/L
Clc1cc(Cl)cc(c1)c2c(Cl)c(Cl)cc(Cl)c2Cl,water,298,-8.2696,mol/L
Clc1ccc(c(Cl)c1)c2c(Cl)c(Cl)c(Cl)c(Cl)c2Cl,water,298,-8.9706,mol/L
Clc1cc(Cl)c(c2cc(Cl)c(Cl)c(Cl)c2)c(Cl)c1Cl,water,298,-9.1,mol/L
Clc1cc(Cl)c(c(Cl)c1)c2c(Cl)c(Cl)c(Cl)c(Cl)c2Cl,water,298,-9.48,mol/L
Clc1cc(cc(Cl)c1Cl)c2c(Cl)c(Cl)c(Cl)c(Cl)c2Cl,water,298,-9.6997,mol/L
Clc1cc(Cl)c(c(Cl)c1)c2c(Cl)c(Cl)cc(Cl)c2Cl,water,298,-8.4901,mol/L
Brc1ccc(Br)c(C=O)c1,water,298,-3.8003,mol/L
O[S](=O)(=O)C(Cl)[S](O)(=O)=O,water,298,0.6765,mol/L
CC(C)(C)C(Br)C(=O)NC(C)(C)c1ccccc1,water,298,-4.9455,mol/L
Clc1cccc(c1Cl)c2c[nH]cc2C#N,water,298,-4.6937,mol/L
N#CC(=N\OCC1OCCO1)/c2ccccc2,water,298,-4.0649,mol/L
CC(C)(C)C(O)C(Cc1ccc(Cl)cc1Cl)n2cncn2,water,298,-4.5619,mol/L
CCOC(=O)[C@H](CCc1ccccc1)N[C@@H](C)C(=O)N2CCC[C@H]2C(O)=O,water,298,-1.3609,mol/L
CCO[P](=O)(Cc1ccc(cc1)c2sc3ccccc3n2)OCC,water,298,-4.0017,mol/L
CCN1CC(=O)N=C1N,water,298,-0.165,mol/L
OC(=O)c1c(Cl)c(Cl)c(Cl)c(Cl)c1C(=O)Nc2cccc(Cl)c2Cl,water,298,-4.5051,mol/L
O[S](=O)(=O)C(Cl)([S](O)(=O)=O)[S](O)(=O)=O,water,298,0.5366,mol/L
CCOC(=O)[C@H](C)NC(=O)CCl,water,298,-0.4628,mol/L
CSCOC(=O)c1ccccc1OC(C)=O,water,298,-2.6404,mol/L
CC(=O)Oc1ccccc1C(=O)OC[S](C)=O,water,298,-1.7824,mol/L
CC(=O)Oc1ccccc1C(=O)OC[S](C)(=O)=O,water,298,-3.3936,mol/L
CC(Oc1ccccc1Cl)C(O)=O,water,298,-2.2232,mol/L
CC(Oc1ccc(Oc2cnc3cc(Cl)ccc3n2)cc1)C(O)=O,water,298,-6.0604,mol/L
CCOC(=O)C(C)Oc1ccc(Oc2cnc3cc(Cl)ccc3n2)cc1,water,298,-6.0944,mol/L
OC(Cn1cncn1)(c2ccc(F)cc2)c3ccccc3F,water,298,-3.3651,mol/L
Clc1cccc(c2cc(Cl)c(Cl)c(Cl)c2)c1Cl,water,298,-7.4052,mol/L
[NH4+].C[P](O)(=O)CCC(N)C([O-])=O,water,298,0.8397,mol/L
CC(C)C[C@H](N)C(=O)N[C@@H](C)C(=O)NCC(O)=O,water,298,-0.8953,mol/L
CCOC(=O)N(C)CC,water,298,-0.4189,mol/L
CCCS[P](=O)(OCC)Oc1cnn(c1)c2ccc(Cl)cc2,water,298,-4.0388,mol/L
CCOC(=O)C(C)OC(=O)c1cc(Oc2ccc(cc2Cl)C(F)(F)F)ccc1[N+]([O-])=O,water,298,-6.6644,mol/L
CCOC(=O)COC(=O)c1cc(Oc2ccc(cc2Cl)C(F)(F)F)ccc1[N+]([O-])=O,water,298,-5.8729,mol/L
CCOC(CC(C)O)OCC,water,298,0.0909,mol/L
NN=C1N=CNc2nccnc12,water,298,-1.8632,mol/L
COCC(=O)N(N1CCOC1=O)c2c(C)cccc2C,water,298,-1.913,mol/L
CCCCCCNC(=O)c1cccnc1,water,298,-2.5221,mol/L
CCC1(C(=O)NC(=O)N(CC(O)CO)C1=O)c2ccccc2,water,298,-1.7872,mol/L
C[C@H]1C(SC(=O)N1C(=O)NC2CCCCC2)c3ccc(Cl)cc3,water,298,-5.8487,mol/L
CCCCOC(=O)[C@@H](C)Oc1ccc(Oc2ccc(cn2)C(F)(F)F)cc1,water,298,-5.2826,mol/L
COC(=O)c1sccc1[S](=O)(=O)NC(=O)Nc2nc(C)nc(OC)n2,water,298,-2.2379,mol/L
Cc1c(F)c(F)c(COC(=O)C2C(\C=C(/Cl)C(F)(F)F)C2(C)C)c(F)c1F,water,298,-7.3209,mol/L
CCC(CC)C(=O)N(CC)CC,water,298,-1.0876,mol/L
CCC(C)(C)C(=O)O[C@H]1C[C@@H](C)C=C2C=C[C@H](C)[C@H](CC[C@@H]3C[C@@H](O)CC(=O)O3)[C@@H]12,water,298,-7.1447,mol/L
CCCCC(O)(Cn1cncn1)c2ccc(Cl)cc2Cl,water,298,-4.2668,mol/L
CC(C)c1cc(Oc2ccccc2)cc(C(C)C)c1NC(=S)NC(C)(C)C,water,298,-6.8068,mol/L
CCOc1ccc(cc1)C(C)(C)COCc2cccc(Oc3ccccc3)c2,water,298,-8.5758,mol/L
CC(C)C1(C)N=C(NC1=O)c2ncccc2C(O)=O,water,298,-1.364,mol/L
CC(C)C1(C)N=C(NC1=O)c2nc3ccccc3cc2C(O)=O,water,298,-3.539,mol/L
CCc1cnc(C2=NC(C)(C(C)C)C(=O)N2)c(c1)C(O)=O,water,298,-2.3153,mol/L
COC(=O)c1ccc(C)cc1C2=NC(C)(C(C)C)C(=O)N2,water,298,-2.4599,mol/L
CCCCCCC(C)OC(=O)COc1nc(F)c(Cl)c(N)c1Cl,water,298,-6.6107,mol/L
CCCCCCCCNC(=O)c1cccnc1,water,298,-3.0081,mol/L
CCCCCCCCCNC(=O)c1cccnc1,water,298,-3.1398,mol/L
CCCCCCCCCCNC(=O)c1cccnc1,water,298,-3.0765,mol/L
CCCCCCCCCCCNC(=O)c1cccnc1,water,298,-3.0266,mol/L
CCCCCCCCCCCCNC(=O)c1cccnc1,water,298,-3.2078,mol/L
CC1(C)CON(Cc2ccccc2Cl)C1=O,water,298,-2.3383,mol/L
COc1nc(C)nc(NC(=O)N[S](=O)(=O)c2ccccc2OCCCl)n1,water,298,-4.0989,mol/L
ON=C1C=CC(=NO)c2ncccc12,water,298,-3.7998,mol/L
CC(C)(C)[C@H](O)[C@H](Oc1ccc(Cl)cc1)n2cncn2,water,298,-3.9524,mol/L
OC(c1ccccc1)c2cc(Cl)ccc2NC(=O)c3ccncc3,water,298,-5.5299,mol/L
CCC(C)(CC)c1cc(NC(=O)c2c(OC)cccc2OC)on1,water,298,-5.3694,mol/L
CCOC(C)CCO,water,298,-0.3736,mol/L
Cc1c(COC(=O)C2C(\C=C(/Cl)C(F)(F)F)C2(C)C)cccc1c3ccccc3,water,298,-6.6262,mol/L
Cn1nc(C)c(C(=O)c2ccc(Cl)c(C)c2Cl)c1OCC(=O)c3ccc(C)cc3,water,298,-6.5209,mol/L
COC(=O)c1ccccc1C[S](=O)(=O)NC(=O)Nc2nc(OC)cc(OC)n2,water,298,-3.534,mol/L
Fc1cccc(F)c1C(=O)NC(=O)Nc2cc(Cl)c(F)c(Cl)c2F,water,298,-7.3023,mol/L
CCOC(=O)CCN(Cc1ccccc1)SN(C)C(=O)O\N=C(\C)SC,water,298,-4.3005,mol/L
Fc1ccc(NC(=O)c2cccnc2Oc3cccc(c3)C(F)(F)F)c(F)c1,water,298,-6.8969,mol/L
OC(=O)C(I)=C(Br)I,water,298,-1.2891,mol/L
CC(C)(C)[C@H](O)\C(=C/c1ccc(Cl)cc1)n2cncn2,water,298,-4.5403,mol/L
CC(C)(C)C(O)\C(=C/c1ccc(Cl)cc1)n2cncn2,water,298,-4.5403,mol/L
CC(C)(C)C(O)\C(=C/c1ccc(Cl)cc1Cl)n2cncn2,water,298,-4.9115,mol/L
CCCC(=O)N(CS[P](=S)(OC)OC)c1ccccc1Cl,water,298,-5.204,mol/L
OC(=O)c1ccc(c2cccnc12)[N+]([O-])=O,water,298,-3.1656,mol/L
CCOC(=O)C1(C)OC(=O)N(C1=O)c2cc(Cl)cc(Cl)c2,water,298,-5.2203,mol/L
Nc1ncc2ncn(COCCO)c2n1,water,298,-1.0775,mol/L
CC(Oc1ccc(Cl)c(C)c1Cl)C(=O)Nc2ccccc2,water,298,-7.0057,mol/L
CCCCCS[S](=O)CCCCC,water,298,-3.1711,mol/L
COCCCCC=O,water,298,0.4574,mol/L
CCC(=O)OCc1ccc(Cl)cc1Cl,water,298,-3.0665,mol/L
C[Si](Cn1cncn1)(c2ccc(F)cc2)c3ccc(F)cc3,water,298,-3.7665,mol/L
OC(=O)C1=CN(C2CC2)c3cc(N4CCNCC4)c(F)cc3C1=O,water,298,-1.0432,mol/L
CCN(C(C)C(C)C)C(=O)SCc1ccccc1,water,298,-4.7337,mol/L
COC(=O)c1ccccc1[S](=O)(=O)NC(=O)Nc2nc(OC(F)F)cc(OC(F)F)n2,water,298,-5.152,mol/L
Clc1ccc(CSC(Cn2cncn2)=Nc3ccc(Cl)cc3Cl)cc1,water,298,-5.3842,mol/L
CCc1cccc(C)c1N(COC(C)C)C(=O)CCl,water,298,-3.1882,mol/L
Fc1cccc(F)c1C(=O)NC(=O)Nc2ccc(Cl)c(Oc3ncc(cc3Cl)C(F)(F)F)c2,water,298,-7.4033,mol/L
CCOc1ccc(NC(=O)OC(C)C)cc1OCC,water,298,-4.0022,mol/L
CCOCCOC(=O)C(C)Oc1ccc(Oc2ncc(cc2Cl)C(F)(F)F)cc1,water,298,-5.8739,mol/L
CCc1cccc(CC)c1N(COC\C=C/C)C(=O)CCl,water,298,-4.0287,mol/L
CCCCCOC(=O)COc1cc(N2C(=O)C3=C(CCCC3)C2=O)c(F)cc1Cl,water,298,-6.3508,mol/L
COCC(C)N(C(=O)CCl)c1c(C)scc1C,water,298,-2.3614,mol/L
CC(Oc1ccc(Oc2ncc(Cl)cc2Cl)cc1)C(=O)N3CCCO3,water,298,-4.5922,mol/L
CC(C)C12CCC(C)(O1)C(C2)OCc3ccccc3C,water,298,-3.6391,mol/L
FC(F)(F)C(=N/OCC1OCCO1)/c2ccc(Cl)cc2,water,298,-4.0138,mol/L
OC(=O)C(Br)=C(Cl)Br,water,298,-1.0071,mol/L
OC(=O)C(Cl)=C(Br)Br,water,298,-0.6873,mol/L
CCC(OCCCOC)OC(C)=O,water,298,0.0085,mol/L
CC(O)C([N+]([O-])=O)[N+]([O-])=O,water,298,0.0789,mol/L
Cc1cc(C)nc(N\N=C(\C)c2ccccc2C)n1,water,298,-3.1959,mol/L
CN1C(=O)N=CC2=C1NC(=O)N2,water,298,-0.794,mol/L
CC(C)(C)[C@@H](O)[C@H](Oc1ccc(Cl)cc1)n2cncn2,water,298,-3.6786,mol/L
C[C@@H](CCO)CCC=O,water,298,-1.0732,mol/L
CN1C=C2N=CC=NC2=NC1=O,water,298,-0.9089,mol/L
O=C1OCc2ccc(cc12)C#N,water,298,-2.7021,mol/L
CC[S](=O)(=O)C(C)(CO)[S](=O)(=O)CC,water,298,-0.1653,mol/L
COc1c(N)c(C=O)ccc1O,water,298,-0.2232,mol/L
COC(=O)c1ccc(cc1C([O-])=O)[N+]([O-])=O,water,298,-2.0558,mol/L
OC(=O)CC[C@H](NCCC#N)C(O)=O,water,298,-1.3015,mol/L
CCC1(CC(C)=O)C(=O)NC(=O)NC1=O,water,298,-0.7661,mol/L
CCCCCCC(O)C(O)C(O)=O,water,298,-1.5469,mol/L
Cc1cnc2c(ccc(Cl)c2C(O)=O)c1,water,298,-2.9973,mol/L
CC[C@H](C)[C@H](NCCC#N)C(O)=O,water,298,-0.9818,mol/L
CCc1nc2cnc(O)nc2nc1CC,water,298,-2.2644,mol/L
CC(C)(OC1CCCCC1)C(O)=O,water,298,-1.0798,mol/L
COC(CC(O)=O)c1ccccc1,water,298,-1.6952,mol/L
[O-][N+](=O)C1C(=O)CC(CC1=O)c2ccccc2,water,298,-1.6688,mol/L
OC(O)(C(=O)Nc1ccccc1)C(=O)Nc2ccccc2,water,298,-2.4568,mol/L
CC=CCC1(C)C(=O)NC(=O)N(C)C1=O,water,298,-1.5445,mol/L
CCOC(=O)C(O)C=C,water,298,0.3627,mol/L
CC1CCCC(O1)OC2CCCC(C)O2,water,298,-1.1083,mol/L
CCCO[P](=O)(OC)OCCC,water,298,-0.6592,mol/L
CN1C=NC2=C(N(C)C(=O)N(C)C2=O)C1=O,water,298,-1.985,mol/L
[O-]C(=O)CN[S](=O)(=O)c1ccc2ccccc2c1,water,298,-2.8497,mol/L
CCCCc1c2ccccc2cc3ccc4ccccc4c13,water,298,-7.5245,mol/L
CCC(Br)(Br)C(O)=O,water,298,-0.8722,mol/L
CCOC(=O)c1cnn(C)c1[S](=O)(=O)NC(=O)Nc2nc(OC)cc(OC)n2,water,298,-4.4561,mol/L
OC(=O)CNC(=O)CN[S](=O)(=O)c1ccc2ccccc2c1,water,298,-2.6954,mol/L
CC(C1CC1)C(O)(Cn2cncn2)c3ccc(Cl)cc3,water,298,-3.3189,mol/L
COCCOc1ccccc1[S](=O)(=O)NC(=O)Nc2nc(OC)nc(OC)n2,water,298,-3.5372,mol/L
CCO[P](=O)(SC(C)CC)SC(C)CC,water,298,-3.0376,mol/L
OC(=O)COC1CCCC1,water,298,-0.8471,mol/L
CCO[P](=S)(OC(C)C)Oc1cnc(nc1)C(C)(C)C,water,298,-4.7626,mol/L
CC(C)(C)N1N=CC(=C(Cl)C1=O)SCc2ccc(cc2)C(C)(C)C,water,298,-7.483,mol/L
COc1ccsc1CN(C(=O)CCl)c2c(C)cccc2C,water,298,-4.4689,mol/L
CNC1=C(C(=O)C(O1)c2ccccc2)c3cccc(c3)C(F)(F)F,water,298,-3.9788,mol/L
CCCCCCCCCCCCCCNC(=O)C(C)O,water,298,-3.9784,mol/L
COC(=O)C1(CC1)[S](=O)(=O)c2ccccc2,water,298,-2.2601,mol/L
ClC(Cl)C(=O)N(CC=C)CC(=O)NCC=C,water,298,-1.0397,mol/L
CCOc1nc(NC)nc(NC(=O)N[S](=O)(=O)c2ccccc2C(=O)OC)n1,water,298,-5.3828,mol/L
CSC(=O)c1c(CC(C)C)c(C(=O)SC)c(nc1C(F)F)C(F)(F)F,water,298,-5.4575,mol/L
COc1nsc(N)n1,water,298,-1.2427,mol/L
CCOc1nsc(N)n1,water,298,-0.6514,mol/L
CC(=O)OCC(S)CS,water,298,-1.2208,mol/L
CCCCC(=CC)C(N)=O,water,298,-1.3717,mol/L
O=C(Nc1ncccn1)c2cnccn2,water,298,-0.3036,mol/L
CC1COc2ccccc2N1C(=O)C(Cl)Cl,water,298,-4.1141,mol/L
CCCCCCCCCOC(=O)c1cccnc1,water,298,-3.0958,mol/L
CCO[P](=O)(SC(C)CC)N1CCSC1=O,water,298,-1.4589,mol/L
Cc1ccn2nc(nc2n1)[S](=O)(=O)Nc3c(F)cccc3F,water,298,-3.8248,mol/L
Cc1ccnc(NC(=O)c2cnccn2)n1,water,298,-0.7308,mol/L
C[S](=O)(=O)c1ccc(c(Cl)c1)C(=O)C2C(=O)CCCC2=O,water,298,-3.2994,mol/L
CC1(C)OC(=O)c2cc(ccc12)[N+]([O-])=O,water,298,-3.0516,mol/L
CCC1OC(=O)c2cc(ccc12)[N+]([O-])=O,water,298,-2.55,mol/L
CC(O)C(C)C=O,water,298,-0.4906,mol/L
Cc1ncnc2c(O)cccc12,water,298,-2.6025,mol/L
CN1C(=O)C(=Nc2cncnc12)C,water,298,-1.489,mol/L
CCCCCC(C)OC(=O)COc1ccc(Cl)c2cccnc12,water,298,-5.7553,mol/L
NC(=O)C1CCCC(N1)C(N)=O,water,298,0.2893,mol/L
CCC(C)(C)C1CCC(=NO)C(C1)=NO,water,298,-3.9652,mol/L
CCCc1ncnc2c(O)cccc12,water,298,-2.9206,mol/L
[NH3+][C@H](CC([O-])=O)c1cccc2ccccc12,water,298,-1.5902,mol/L
CCCCCCCOC(=O)c1cccnc1,water,298,-2.7429,mol/L
CCOC(=O)[C@@H](C)Oc1ccc(Oc2cnc3cc(Cl)ccc3n2)cc1,water,298,-5.9694,mol/L
COC(=O)c1c(Cl)nn(C)c1[S](=O)(=O)NC(=O)Nc2nc(OC)cc(OC)n2,water,298,-4.4642,mol/L
CCOc1ccc(NC(C)=O)c2cccnc12,water,298,-1.5171,mol/L
CCCCO[P](=O)(OCCCC)OCCCCOCC,water,298,-2.6468,mol/L
CC1(C)[C@@H](\C=C/C(=O)OC(C(F)(F)F)C(F)(F)F)[C@H]1C(=O)O[C@H](C#N)c2cccc(Oc3ccccc3)c2,water,298,-7.4325,mol/L
COC(=O)c1ccccc1[S](=O)(=O)NC(=O)N(C)c2nc(C)nc(OC)n2,water,298,-3.8981,mol/L
OC(=O)C(Cl)(Cl)CCCl,water,298,-0.5831,mol/L
Fc1cc(Oc2ccc(cc2Cl)C(F)(F)F)ccc1NC(=O)NC(=O)c3c(F)cccc3F,water,298,-8.5073,mol/L
COC(=O)c1cc(ccc1C([O-])=O)[N+]([O-])=O,water,298,-1.721,mol/L
NCCCCCCNCCCCCCCCCCC(O)=O,water,298,-2.3017,mol/L
CCC(N(Cc1occc1)C(=O)n2ccnc2)C(=O)OCCCC=C,water,298,-2.8919,mol/L
CN1C(=O)C=Nc2cncnc12,water,298,-0.9089,mol/L
COc1ncc2nccnc2n1,water,298,-1.113,mol/L
CN1C(=O)N=Cc2nccnc12,water,298,-1.3713,mol/L
CCCC\C(=C\C)C(=O)NC(N)=O,water,298,-2.7883,mol/L
COC(C)C(C)Cl,water,298,-1.9986,mol/L
COc1cc(Br)c2COC(=O)c2c1OC,water,298,-3.9311,mol/L
CCc1nc2ncnc(O)c2nc1CC,water,298,-1.9122,mol/L
CCOC(=O)c1nn(c2ccc(Cl)cc2Cl)c(n1)C(Cl)(Cl)Cl,water,298,-5.6516,mol/L
Fc1cc2OCC(=O)N(CC#C)c2cc1N3C(=O)C4=C(CCCC4)C3=O,water,298,-5.2966,mol/L
OC(=O)CCCC(C(O)=O)(c1ccccc1)c2ccccc2,water,298,-3.1737,mol/L
CC(C)C1(C)N=C(NC1=O)c2ncc(C)cc2C(O)=O,water,298,-2.0911,mol/L
COc1c(oc2ccccc12)C(O)=O,water,298,-2.8857,mol/L
COC/C(=N/OCC(=O)OC)c1cc(Oc2ccc(cc2Cl)C(F)(F)F)ccc1[N+]([O-])=O,water,298,-5.6783,mol/L
CCOc1ccc(cc1)[Si](C)(C)CCCc2ccc(F)c(Oc3ccccc3)c2,water,298,-8.6113,mol/L
C[C@@H](Oc1ccc(Oc2ncc(Cl)cc2F)cc1)C(=O)OCC#C,water,298,-4.9417,mol/L
CCOCCc1ccc(OCCNc2ncnc(CC)c2Cl)c(C)c1C,water,298,-5.2409,mol/L
CC(CCC(O)=O)NC(=O)c1ccccc1,water,298,-1.6917,mol/L
Cc1nc(Br)[nH]c1[N+]([O-])=O,water,298,-1.7914,mol/L
CNC(=O)COC(=O)c1ccccc1,water,298,-1.7178,mol/L
CCCNC(=O)COC(=O)c1ccccc1,water,298,-2.5387,mol/L
CC(C)(C)NC(=O)COC(=O)c1ccccc1,water,298,-2.8665,mol/L
NC(=O)CNC(=O)COC(=O)c1ccccc1,water,298,-1.4983,mol/L
CN(C)C(=O)COC(=O)c1ccccc1,water,298,-1.372,mol/L
CCCN(CCC)C(=O)COC(=O)c1ccccc1,water,298,-2.3791,mol/L
CCCCN(CCCC)C(=O)COC(=O)c1ccccc1,water,298,-3.5614,mol/L
C=CCN(CC=C)C(=O)COC(=O)c1ccccc1,water,298,-2.5626,mol/L
CN(CC(O)=O)C(=O)COC(=O)c1ccccc1,water,298,-2.254,mol/L
O=C(COC(=O)c1ccccc1)N2CCCCC2,water,298,-2.5011,mol/L
O=C(COC(=O)c1ccccc1)N2CCOCC2,water,298,-1.7734,mol/L
CCC(NC=O)C(O)=O,water,298,-0.5918,mol/L
CC(C)(C)C(O)(CCc1ccc(Cl)cc1)Cn2cncn2,water,298,-3.932,mol/L
N[S](=O)(=O)c1ccc(SCCO)cc1,water,298,-1.8239,mol/L
N[S](=O)(=O)c1ccc(SCCCO)cc1,water,298,-2.2472,mol/L
N[S](=O)(=O)c1ccc(SCCCCCO)cc1,water,298,-2.6618,mol/L
CC(O)(CCC(C)(O)C(O)=O)C(O)=O,water,298,-0.8372,mol/L
CCCc1nc(N)c(CC)c(CCC)n1,water,298,-2.5132,mol/L
C\C(=N/NC(=O)Nc1cc(F)cc(F)c1)c2ncccc2C(O)=O,water,298,-3.7248,mol/L
OC(=O)c1ccccc1C2OC(=O)c3ccccc23,water,298,-3.1042,mol/L
O=C1CCCCCCCCCCCCCCCCCN1,water,298,-2.8474,mol/L
CC#Cc1cc(C)nc(Nc2ccccc2)n1,water,298,-4.8575,mol/L
CC(Oc1ccc(Oc2cnc3cc(Cl)ccc3n2)cc1)C(=O)OCCON=C(C)C,water,298,-5.8479,mol/L
Cn1nc(C)c(\C=N\OCc2ccc(cc2)C(=O)OC(C)(C)C)c1Oc3ccccc3,water,298,-7.4604,mol/L
CC(C)(COCc1cccc(Oc2ccccc2)c1)c3ccc(OC(F)(F)Br)cc3,water,298,-9.9799,mol/L
CCOC(=O)CSc1nc(nn1C(=O)N(C)C)C(C)(C)C,water,298,-2.861,mol/L
CC(C)(C)N(NC(=O)c1ccc(Cl)cc1)C(=O)c2ccccc2,water,298,-4.4404,mol/L
CCc1ccc(cc1)C(=O)NN(C(=O)c2cc(C)cc(C)c2)C(C)(C)C,water,298,-5.6281,mol/L
OC(=O)C1CC1C(=O)Nc2ccc(Cl)cc2Cl,water,298,-3.8697,mol/L
CC(Oc1ccc(Oc2oc3cc(Cl)ccc3n2)cc1)C(O)=O,water,298,-3.092,mol/L
COCc1cnc(C2=NC(C)(C(C)C)C(=O)N2)c(c1)C(O)=O,water,298,-1.84,mol/L
Clc1ccc(CCC(Cn2cncn2)(C#N)c3ccccc3)cc1,water,298,-6.2264,mol/L
CC[C@H]1[C@H](C)OC1=O,water,298,-0.6665,mol/L
O=C(COC(=O)c1ccccc1)N2CCC2,water,298,-1.6085,mol/L
O=C(COC(=O)c1ccccc1)N2CCCCCC2,water,298,-2.5421,mol/L
OC1CCN(CC1)C(=O)COC(=O)c2ccccc2,water,298,-1.3486,mol/L
OC(=O)[C@@H]1CCCN1C(=O)COC(=O)c2ccccc2,water,298,-1.5917,mol/L
COC(=O)[C@@H]1CCCN1C(=O)COC(=O)c2ccccc2,water,298,-2.0841,mol/L
CN(C)C(=O)CCOC(=O)c1ccccc1,water,298,-1.0994,mol/L
CN(C)C(=O)CCCOC(=O)c1ccccc1,water,298,-1.2286,mol/L
CN(C(C)=O)C(=O)COC(=O)c1ccccc1,water,298,-2.8664,mol/L
CC(C)NC(=O)COC(=O)c1ccccc1,water,298,-2.7321,mol/L
CCCCNC(=O)COC(=O)c1ccccc1,water,298,-2.7588,mol/L
CCCCCCNC(=O)COC(=O)c1ccccc1,water,298,-3.902,mol/L
CC(NC(=O)COC(=O)c1ccccc1)C(N)=O,water,298,-2.7172,mol/L
Clc1ccc(c(Cl)c1)C2(CC(Br)CO2)Cn3cncn3,water,298,-3.8775,mol/L
FC(OC(F)(F)F)C(F)(F)Oc1ccc(NC(=O)NC(=O)c2c(F)cccc2F)cc1Cl,water,298,-6.9675,mol/L
CCNC(C)CC,water,298,-0.21,mol/L
NCCCCC(NC(=O)c1ccccc1)C(O)=O,water,298,-2.2845,mol/L
COC(=O)CSc1cc(N=C2SC(=O)N3CCCCN23)c(F)cc1Cl,water,298,-5.6768,mol/L
O[C@@H]([C@@H](O)[C@@H](O)C(O)=O)[C@@H](O)C(O)=O,water,298,0.1999,mol/L
COC(=O)c1c(CC(C)C)c(C2=NCCS2)c(nc1C(F)F)C(F)(F)F,water,298,-5.2002,mol/L
CCCN(CC)CC1COC2(CCC(CC2)C(C)(C)C)O1,water,298,-2.8014,mol/L
OCCc1ccc(O)c(c1)[N+]([O-])=O,water,298,-1.1556,mol/L
CC1OC(=O)c2cc(N)ccc12,water,298,-1.7891,mol/L
CC1(C)[C@H](C=C(Cl)Cl)[C@H]1C(=O)OCc2c(F)c(F)cc(F)c2F,water,298,-6.8137,mol/L
COc1ccc(cc1)C(=O)c2csc(c2)[S](N)(=O)=O,water,298,-4.4733,mol/L
N[S](=O)(=O)c1scc(c1)C(=O)c2ccc(O)cc2,water,298,-2.8612,mol/L
COc1ccc(cc1)C(=O)c2coc(c2)[S](N)(=O)=O,water,298,-4.1481,mol/L
Cc1ccc(cc1)C(=O)c2csc(c2)[S](N)(=O)=O,water,298,-4.4492,mol/L
NC(=O)c1nn(c2ccc(Cl)c(COCC(F)(F)C(F)(F)F)c2)c(n1)c3ccccc3,water,298,-5.6635,mol/L
CCc1nn(C)c(C(=O)NCc2ccc(cc2)C(C)(C)C)c1Cl,water,298,-5.1086,mol/L
CC1COC(Cn2cncn2)(O1)c3ccc(Oc4ccc(Cl)cc4)cc3Cl,water,298,-4.4327,mol/L
CC(Oc1ccc(Oc2cnc3cc(Cl)ccc3n2)cc1)C(=O)OCC4CCCO4,water,298,-5.0303,mol/L
Nc1n(nc(C#N)c1[S](=O)C(F)(F)F)c2c(Cl)cc(cc2Cl)C(F)(F)F,water,298,-5.3619,mol/L
COc1cc(OC)nc(NC(=O)N[S](=O)(=O)c2n(C)ncc2c3nnn(C)n3)n1,water,298,-2.6066,mol/L
CCN(Cc1ccc(Cl)nc1)\C(NC)=C\[N+]([O-])=O,water,298,0.4918,mol/L
CC(C)(C)c1ccc(CCOc2ncnc3ccccc23)cc1,water,298,-6.1439,mol/L
COc1ccc(NCC(O)CO)cc1,water,298,-0.295,mol/L
Cc1cc(nc(Nc2ccccc2)n1)C3CC3,water,298,-4.2388,mol/L
CC1(C)OC(CN1C(=O)C(Cl)Cl)c2occc2,water,298,-3.1498,mol/L
CCCCOC(=O)C(C)Oc1ccc(Oc2ccc(cc2F)C#N)cc1,water,298,-5.708,mol/L
COc1cc(OC)nc(NC(=O)N[S](=O)(=O)c2n3ccccc3nc2Cl)n1,water,298,-4.7886,mol/L
NC(=O)C[C@H](NC(=O)CCl)C(O)=O,water,298,-0.3193,mol/L
CC[S](=O)(=O)c1cccnc1[S](=O)(=O)NC(=O)Nc2nc(OC)cc(OC)n2,water,298,-4.6349,mol/L
CC1=NNC(=O)N(C1)\N=C\c2cccnc2,water,298,-2.8745,mol/L
C[C@@H](O)CCCC=O,water,298,-0.463,mol/L
CCOC(=O)c1ccc(OC)c(OC)c1C([O-])=O,water,298,-2.253,mol/L
Fc1ccc(Oc2ccnc3cc(Cl)cc(Cl)c23)cc1,water,298,-6.4243,mol/L
CC1(C)CCC(Cc2ccc(Cl)cc2)C1(O)Cn3cncn3,water,298,-4.3288,mol/L
CC(C)C1CCC(Cc2ccc(Cl)cc2)C1(O)Cn3cncn3,water,298,-4.6828,mol/L
CCN(CC)C(=O)n1cnc(n1)[S](=O)(=O)c2c(C)cc(C)cc2C,water,298,-5.1467,mol/L