Solute,Solvent,Temperature_K,Solubility,Units
CC(=O)OC(C)(C)C1CCC(=CC1)C.CC23CCC(CC2)C(C)(C)O3,water,298,-3.021359064,mol/L
C=CCOc1nc(OCC=C)nc(OCC=C)n1,water,298,-2.87422578,mol/L
OC(=O)CC[P](O)(=O)c1ccccc1,water,298,-0.809594191,mol/L
CCCCC(O)=O,water,298,-0.490652149,mol/L
CC(O)C(C)Cc1ccccc1,water,298,-1.69697299,mol/L
CCCCC(C(=O)OCC)C(=O)OCC,water,298,-2.816496397,mol/L
CCCCCCCCCCCC1=NCCN1CCO,water,298,-3.898655621,mol/L
FC(F)(F)c1ccc(Cl)cc1,water,298,-3.727695225,mol/L
Oc1ccc(cc1)c2ccc(O)cc2,water,298,-3.742373099,mol/L
C\C=C\OC1CCC(CC1)O\C=C\C,water,298,-3.903732091,mol/L
O=C1CCCCCCCCCOCCCCCO1,water,298,-3.8838495,mol/L
C\C=C\OC1CCC(CC1)O\C=C\C,water,298,-3.950475494,mol/L
CCCCCCCCCCC(C)CCCCCCCC,water,298,-6.451104534,mol/L
NC(=O)N=NC(N)=O,water,298,-3.54624346,mol/L
CC(C)(C)c1ccc(O)c(c1)C(C)(C)C,water,298,-3.796046333,mol/L
CC(Cc1ccc(cc1)C(C)(C)C)C=O,water,298,-3.791782061,mol/L
COc1ccc(cc1N)C(=O)Nc2ccccc2,water,298,-3.86580004,mol/L
[C-]#[O+],water,298,-2.928799169,mol/L
OC(=O)c1occc1,water,298,0.468496284,mol/L
CCC(C)(C)Cl,water,298,-2.51054501,mol/L
CC(=O)CC(=O)Nc1ccc(NC(=O)CC(C)=O)cc1,water,298,-2.924172412,mol/L
N#CCN(CCN(CC#N)CC#N)CC#N,water,298,-2.820404347,mol/L
NC(Nc1ccccc1)=Nc2ccccc2,water,298,-2.81295036,mol/L
CC(C)(C)OOC(=O)c1ccccc1,water,298,-2.776432949,mol/L
CC(F)F,water,298,-1.314722844,mol/L
CCC(C)(O)CCCC(C)C,water,298,-2.694289782,mol/L
COc1ccc2NC(=S)Nc2c1,water,298,-2.750681924,mol/L
Nc1nc(N)nc(n1)c2ccccc2,water,298,-2.767169786,mol/L
FC(F)(F)Br,water,298,-2.667770969,mol/L
C=Cc1ccccc1,water,298,-2.512517636,mol/L
[Zn++].CC(C)CCCCCO[P]([S-])(=S)OCCCCCC(C)C.CC(C)CCCCCO[P]([S-])(=S)OCCCCCC(C)C,water,298,-4.370701466,mol/L
C1OC1COc2ccc3c(OCC4CO4)cccc3c2,water,298,-3.919173798,mol/L
CC(C)=CCC\C(C)=C\COC=O,water,298,-3.746150762,mol/L
O.O.O.O.[Pb].[Pb].[Pb].[Pb].[Pb].[O-][S]([O-])(=O)=O,water,298,-4.566123099,mol/L
C[C@@H]1CC=C(C)[C@H](\C=C\C(C)=O)C1(C)C,water,298,-3.802676912,mol/L
CO[SiH](CC1CCCCC1)OC,water,298,-3.095972537,mol/L
[Co++].[O-]C(=O)C([O-])=O,water,298,-3.659316674,mol/L
Nc1ccc(\C=C\c2ccc(N)cc2[S](O)(=O)=O)c(c1)[S](O)(=O)=O,water,298,-4.06353038,mol/L
[Zn++].Cc1cccc2[N-]C(=S)Nc12.Cc3cccc4NC(=S)[N-]c34,water,298,-4.08795879,mol/L
OC(=O)CC[P](O)(=O)c1ccccc1,water,298,-0.828305155,mol/L
O=[S](Cc1ccccc1)Cc2ccccc2,water,298,-2.858808721,mol/L
CC(C)(c1ccc(O)cc1)c2ccc(O)cc2,water,298,-2.856061671,mol/L
CC(C)(N=NC(C)(C)C#N)C#N,water,298,-2.713250998,mol/L
CCC(C)COC(=O)C=C,water,298,-2.653206406,mol/L
Clc1sc2ccccc2n1,water,298,-2.732588375,mol/L
CC1=CC(=O)N(O)C(=C1)C2CCCCC2.NCCO,water,298,-0.933168591,mol/L
CC(=O)OC\C=C\c1ccccc1,water,298,-2.750498537,mol/L
Clc1sc2ccccc2n1,water,298,-2.735363429,mol/L
Clc1ccc2c(Cl)ccnc2c1,water,298,-2.802624638,mol/L
OC(=O)CC[P](O)(=O)c1ccccc1,water,298,-0.83681438,mol/L
Nc1cccc(O)c1,water,298,-0.545147879,mol/L
Nc1ccccc1[S](O)(=O)=O,water,298,-1.747168641,mol/L
[Ti+4].CC(C)[O-].CC(C)[O-].CC(=O)[CH-]C(C)=O.CC(=O)[CH-]C(C)=O,water,298,-2.070050982,mol/L
CC(=O)Nc1ccc(cc1)[S](Cl)(=O)=O,water,298,-2.877252416,mol/L
C=Cc1ccccc1,water,298,-2.52630592,mol/L
[Mg++].[O-]C([O-])=O,water,298,-3.42210386,mol/L
Nc1c(Cl)cc(Cl)cc1Cl,water,298,-3.790037211,mol/L
Clc1ccc(Cl)cc1,water,298,-3.66626989,mol/L
c1ccc2ccccc2c1,water,298,-3.606740676,mol/L
Clc1ccc(Cl)c(Cl)c1,water,298,-3.763210242,mol/L
CCC(=O)OC1C(C)CCCC1(C)C,water,298,-3.803181261,mol/L
COC(=O)c1ccc(cc1)C(=O)OC,water,298,-3.796856222,mol/L
CCCCCCCC1CCCC1=O,water,298,-3.769441651,mol/L
O=C(Cc1ccccc1)OCc2ccccc2,water,298,-3.86327488,mol/L
CC(C)[C@@H]1CC[C@@H](C)CC1=O,water,298,-2.698978451,mol/L
Clc1sc2ccccc2n1,water,298,-2.740967307,mol/L
CN(C)C(=S)SC(=S)N(C)C,water,298,-2.830299065,mol/L
C=CCOc1nc(OCC=C)nc(OCC=C)n1,water,298,-2.908119297,mol/L
C[C@@H](CCO)CCC=C(C)C,water,298,-2.706734458,mol/L
CCC(=O)C(C)CC=C(C)C,water,298,-2.701095244,mol/L
Cc1cc(C)c(N)c(c1)[S](O)(=O)=O,water,298,-1.819543504,mol/L
N#CCN(CCN(CC#N)CC#N)CC#N,water,298,-2.852078516,mol/L
s1cccc1,water,298,-1.445011049,mol/L
s1cccc1,water,298,-1.445730676,mol/L
COC(=O)CCCCCCCCC(=O)OC,water,298,-2.883734985,mol/L
CC(C)(c1ccc(O)cc1)c2ccc(O)cc2,water,298,-2.879922295,mol/L
ClC(Cl)(Cl)C=O,water,298,-0.691340871,mol/L
CCC(C)CO,water,298,-0.468101062,mol/L
CC(C)CCO,water,298,-0.468101062,mol/L
[Na+].[Na+].[Na+].[Na+].CC(=O)Nc1ccc(c2C=C(/C(=N/Nc3ccc(N=Nc4ccc(cc4)[S]([O-])(=O)=O)c5ccc(cc35)[S]([O-])(=O)=O)C(=O)c12)[S]([O-])(=O)=O)[S]([O-])(=O)=O,water,298,-1.461244839,mol/L
s1cnc2ccccc12,water,298,-1.653826526,mol/L
CCCCOC=C,water,298,-1.523577397,mol/L
C1OC1c2ccccc2,water,298,-1.602606135,mol/L
OC(=O)c1cccc(c1)[N+]([O-])=O,water,298,-1.745907172,mol/L
O=[Mo]=O,water,298,-3.739643636,mol/L
S=C1Nc2ccccc2N1,water,298,-2.699566026,mol/L
O=C1Nc2ccccc2C(=O)O1,water,298,-2.735417906,mol/L
OC(c1ccccc1)C(=O)c2ccccc2,water,298,-2.849722352,mol/L
CC(C)(c1ccc(O)cc1)c2ccc(O)cc2,water,298,-2.881367536,mol/L
C=Cc1ccccc1,water,298,-2.540546359,mol/L
CCCCCCCCO,water,298,-2.637593121,mol/L
Clc1cccc(Cl)c1Cl,water,298,-3.7687961,mol/L
O=[Te]=O,water,298,-3.715606233,mol/L
O=[Te]=O,water,298,-3.717306018,mol/L
COC(=O)COc1nc(F)c(Cl)c(N)c1Cl,water,298,-3.951281028,mol/L
CC(=C)C(=O)OCC(F)(F)C(F)(F)C(F)(F)C(F)F,water,298,-4.000209858,mol/L
Nc1c(Cl)cc(Cl)cc1Cl,water,298,-3.816161727,mol/L
CC(C)=CCCC(C)(OC(C)=O)C=C,water,298,-3.81577692,mol/L
[Ca++].CCCCCCC(O)CCCCCCCCCCC([O-])=O.CCCCCCC(O)CCCCCCCCCCC([O-])=O,water,298,-4.328398633,mol/L
OC(=O)CCCCCCCCCCC(O)=O,water,298,-3.885180226,mol/L
CC(C)(C)c1cccc(c1O)C(C)(C)C,water,298,-4.713587378,mol/L
COc1ccc(cc1O)[C@@H]2CC(=O)c3c(O)cc(O[C@@H]4O[C@H](CO)[C@@H](O)[C@H](O)[C@H]4O[C@@H]5O[C@@H](C)[C@H](O)[C@@H](O)[C@H]5O)cc3O2,water,298,-5.185848833,mol/L
[Ce+3].[Ce+3].[O-]C([O-])=O.[O-]C([O-])=O.[O-]C([O-])=O,water,298,-5.066402363,mol/L
CCCCC(CC)COC(C)=O,water,298,-4.645140005,mol/L
CCCCCCCCC(C)C#N,water,298,-4.63242095,mol/L
CCN1C(=O)C(=N/Nc2ccc(Cl)cc2[N+]([O-])=O)/C(=C(C#N)C1=O)C,water,298,-4.96733793,mol/L
CC(C)CCCC=C,water,298,-4.458990177,mol/L
ClCCc1cc2CC(=O)Nc2cc1Cl,water,298,-4.77757407,mol/L
CCCCOCCOC(=O)CCCCC(=O)OCCOCCCC,water,298,-4.958733139,mol/L
CC(c1ccccc1)c2ccccc2,water,298,-4.692503939,mol/L
Cc1ccccc1Cc2ccccc2,water,298,-4.692503939,mol/L
CC1=CCC2C(C1)C2(C)C,water,298,-4.566096535,mol/L
O=[Si]=O,water,298,-4.210557113,mol/L
[Nd+3].[Nd+3].[O-]C([O-])=O.[O-]C([O-])=O.[O-]C([O-])=O,water,298,-5.108420439,mol/L
CC(=O)O[C@@]1(CC[C@H]2[C@@H]3CCC4=CC(=O)CC[C@@H]4[C@H]3CC[C@]12C)C(C)=O,water,298,-4.995753937,mol/L
OC(=O)c1cc(Nc2ccccc2)c(cc1Nc3ccccc3)C(O)=O,water,298,-4.985723288,mol/L
O=C(OCc1ccccc1)/C=C/c2ccccc2,water,298,-4.820796026,mol/L
CC(=O)OC1CCC(CC1)C(C)(C)C,water,298,-4.747107502,mol/L
O=C1N=C(NC(=N1)c2ccccc2)c3ccccc3,water,298,-5.493585254,mol/L
[O--].[O--].[O--].[Gd+3].[Gd+3],water,298,-5.015236372,mol/L
CC(C)C(=O)OC(C)(CCC=C(C)C)C=C,water,298,-4.810584984,mol/L
Cc1cc(C)c(c(C)c1)C(=O)[P](=O)(c2ccccc2)c3ccccc3,water,298,-5.010576791,mol/L
CCCCC(CC)C(=O)OCC(C)(C)COC(=O)C(CC)CCCC,water,298,-5.02063787,mol/L
[O--].[O--].[O--].[O--].[O--].[Ti+4].[Zr+4].[Pb++],water,298,-5.098222153,mol/L
CCOC(=O)C1C(C=C(C)C)C1(C)C,water,298,-4.765268274,mol/L
Oc1ccc(cc1)C2(OC(=O)c3ccccc23)c4ccc(O)cc4,water,298,-4.976535563,mol/L
CCC(Cc1ccc(C)cc1)(N(C)C)C(=O)c2ccc(cc2)N3CCOCC3,water,298,-5.061877244,mol/L
NC(=O)c1ccc(NC(=O)c2ccc(cc2)[N+]([O-])=O)cc1,water,298,-4.936725416,mol/L
CC(=O)c1cc(cc2c1CCC2(C)C)C(C)(C)C,water,298,-4.870866208,mol/L
COc1cc(N[S](=O)(=O)c2ccc(C)cc2)c3C(=O)c4ccccc4C(=O)c3c1N,water,298,-5.112570051,mol/L
[H+].[Mn++].Cc1cc(c(cc1Cl)N=Nc2c([O-])c(cc3ccccc23)C([O-])=O)[S]([O-])(=O)=O,water,298,-5.170401078,mol/L
Cc1ccc(Nc2cc(C(O)=O)c(Nc3ccc(C)cc3)cc2C(O)=O)cc1,water,298,-5.070513482,mol/L
[Lu+3].[Lu+3].[O-]C(=O)C([O-])=O.[O-]C(=O)C([O-])=O.[O-]C(=O)C([O-])=O,water,298,-5.283009905,mol/L
COc1cc(NC(=O)c2cc3ccccc3cc2O)c(OC)cc1Cl,water,298,-5.062270146,mol/L
CCCCC(CC)COC(=O)C(C)=C,water,298,-4.805974161,mol/L
CCCCC(CC)CCl,water,298,-4.680882096,mol/L
NC(=O)c1ccc(NC(=O)c2ccc(N)cc2)cc1,water,298,-4.915649994,mol/L
C.CCCCCCCCCCCCO,water,298,-4.81481019,mol/L
[O--].[O--].[O--].[Gd+3].[Gd+3],water,298,-5.067942723,mol/L
[Lu+3].[Lu+3].[O-]C(=O)C([O-])=O.[O-]C(=O)C([O-])=O.[O-]C(=O)C([O-])=O,water,298,-5.296798189,mol/L
C=CC(=O)OCCCCCCCCCCOC(=O)C=C,water,298,-4.960875455,mol/L
C[C@H]1CC(=O)C[C@@H]2CC[C@H]3[C@@H]4CC[C@H](O)[C@@]4(C)CC[C@@H]3[C@@]12C,water,298,-5.006428958,mol/L
CC1(C)CC2(CC(C)(C)N1)OC3(CCCCCCCCCCC3)NC2=O,water,298,-5.084664439,mol/L
CCC(C)(C)c1ccc(O)c(c1)C(C)(C)CC,water,298,-4.892804854,mol/L
COc1ccc(c(O)c1)C(=O)c2ccccc2,water,298,-4.881283823,mol/L
CCCCC(CC)COC(=O)CS[Sn](C)(SCC(=O)OCC(CC)CCCC)SCC(=O)OCC(CC)CCCC,water,298,-5.394292294,mol/L
C1CCC\C=C/CC1,water,298,-4.56506034,mol/L
ClC(=O)OCCOCCOC(Cl)=O,water,298,-4.886549003,mol/L
[Lu+3].[Lu+3].[O-]C(=O)C([O-])=O.[O-]C(=O)C([O-])=O.[O-]C(=O)C([O-])=O,water,298,-5.311038629,mol/L
OCc1cccc(Oc2ccccc2)c1,water,298,-2.825873142,mol/L
N#CCN(CCN(CC#N)CC#N)CC#N,water,298,-2.859280911,mol/L
O=C1CCCCCCCCCCCN1,water,298,-2.81950432,mol/L
COC(=O)\C=C\c1ccccc1,water,298,-2.73434753,mol/L
CSc1cc(SC)c(N)c(C)c1N,water,298,-2.856925458,mol/L
CC(C)(c1ccc(O)cc1)c2ccc(O)cc2,water,298,-2.884272526,mol/L
CCC(C)CO,water,298,-0.472465867,mol/L
COc1ccc(\C=C\C)cc1OC,water,298,-2.778226795,mol/L
Cc1ccc2cccc(O)c2n1,water,298,-1.730618615,mol/L
NC(=O)c1ccccc1O,water,298,-1.6658661,mol/L
S=C=S,water,298,-1.413294061,mol/L
[Co++].CCC1CCC(CCC([O-])=O)C1.CCC2CCC(CCC([O-])=O)C2,water,298,-3.132383191,mol/L
CC(C)(COCCCOC(=O)C=C)COCCCOC(=O)C=C,water,298,-3.04954214,mol/L
CCCCCOC=O,water,298,-1.602059991,mol/L
COC(=O)c1cccc(c1)C(=O)OC,water,298,-2.825819918,mol/L
C=Cc1ccccc1,water,298,-2.555269616,mol/L
CCCCCCOC(=O)C(C)=C,water,298,-3.755421034,mol/L
Clc1cc(Cl)c(Cl)nc1Cl,water,298,-3.861424691,mol/L
COC(=O)CCCCCCCCC(=O)OC1CC(C)(C)N(C)C(C)(C)C1.CN2C(C)(C)CC(CC2(C)C)OC(=O)CCCCCCCCC(=O)OC3CC(C)(C)N(C)C(C)(C)C3,water,298,-4.46944343,mol/L
Nc1scc(n1)c2ccc3ccccc3c2,water,298,-4.849542252,mol/L
CCCCCC(CO)Cc1ccccc1,water,298,-3.843268562,mol/L
CCC(C)c1ccccc1,water,298,-3.65800169,mol/L
CCCCCCCCCC=O,water,298,-3.725525503,mol/L
N(c1ccccc1)c2ccccc2,water,298,-3.764576667,mol/L
CC(=O)OC/C=C(C)/CCC=C(C)C,water,298,-3.830500177,mol/L
CN(C)C(=O)Nc1ccc(Cl)c(Cl)c1,water,298,-3.905140549,mol/L
CC(CC/C=C(C)/CCC=O)C=C,water,298,-3.79357605,mol/L
COC(=O)C(F)(F)F,water,298,-0.647983703,mol/L
CC1=CC[C@@H](CC1)C(C)(C)O,water,298,-1.730351723,mol/L
CCOc1cc(C=O)ccc1O,water,298,-1.764202268,mol/L
COC(=O)\C=C\c1ccccc1,water,298,-2.753652685,mol/L
CC(=O)CCc1ccccc1,water,298,-1.716017996,mol/L
COc1cc(NC(=O)CC(C)=O)c(OC)cc1Cl,water,298,-2.979244778,mol/L
CC(=O)OC\C=C\c1ccccc1,water,298,-2.792724534,mol/L
C=CCOc1nc(OCC=C)nc(OCC=C)n1,water,298,-2.943351674,mol/L
CCOc1cc(C=O)ccc1O,water,298,-1.770319193,mol/L
CC(=O)Oc1ccc(cc1C2C(=O)Oc3ccc(cc23)C(C)(C)CC(C)(C)C)C(C)(C)CC(C)(C)C,water,298,-6.692582562,mol/L
C,water,298,-1.755036475,mol/L
CCCCC(CC)COC(=O)Nc1ccc(C)c(NC(=O)OCCN(C)C)c1.CC(O)C(O)=O,water,298,-0.235193825,mol/L
CCCC(=O)OCc1ccccc1,water,298,-2.800757237,mol/L
CCC(C)CCCC(C)(C)O,water,298,-2.749344685,mol/L
[Na+].ClN1C(=O)[N-]C(=O)N(Cl)C1=O,water,298,-0.895160011,mol/L
CC(F)F,water,298,-1.372714791,mol/L
CC(Cl)CCl,water,298,-1.605870446,mol/L
Nc1cc(ccc1O)[S](O)(=O)=O,water,298,-1.829744737,mol/L
C[C@]12CCC(=O)C=C1CC[C@H]3[C@@H]4CC[C@](O)(C(=O)CO)[C@@]4(C)C[C@H](O)[C@H]23,water,298,-3.112109244,mol/L
CC(=O)OCC(=O)[C@@]1(O)CC[C@H]2[C@@H]3CCC4=CC(=O)CC[C@]4(C)[C@H]3[C@@H](O)C[C@]12C,water,298,-3.159763716,mol/L
CCCCCCCC/C=C/CCCCCCCC(O)=O.NCCO,water,298,-3.08883445,mol/L
CCCCOCCOCCOCc1cc2OCOc2cc1CCC,water,298,-4.068588977,mol/L
CN(C)C(=O)Nc1ccc(Cl)c(Cl)c1,water,298,-3.90814606,mol/L
[O--].[O--].[O--].[Sb+3].[Sb+3],water,298,-4.006781989,mol/L
CN(C)C(=O)Nc1ccc(Cl)c(Cl)c1,water,298,-3.912693687,mol/L
CC(CO)CCC1CC=C(C)C1(C)C,water,298,-3.842746406,mol/L
CC(C)CCCCCCCO,water,298,-3.750733441,mol/L
[Ca++].CCCCCCC(O)CCCCCCCCCCC([O-])=O.CCCCCCC(O)CCCCCCCCCCC([O-])=O,water,298,-4.356813568,mol/L
CCCCCCCCCCCC(=O)N(C)C,water,298,-3.909307051,mol/L
CC(C)(C)C1CCC(O)CC1,water,298,-3.103262125,mol/L
CC(C)(C)C1CCC(O)CC1,water,298,-3.168157449,mol/L
CCCCCCCCCCCCCCN(C)C,water,298,-3.935692561,mol/L
CCCS[P](=O)(OCC)Oc1ccc(Br)cc1Cl,water,298,-4.125290683,mol/L
COC(=O)COc1nc(F)c(Cl)c(N)c1Cl,water,298,-3.982689492,mol/L
Oc1ccc(cc1[N+]([O-])=O)[N+]([O-])=O,water,298,-1.819466098,mol/L
CCCCl,water,298,-1.45340682,mol/L
[Zn++].CC(C)CC(C)O[P]([S-])(=S)OC(C)C.CC(C)CC(C)O[P]([S-])(=S)OC(C)C,water,298,-2.318974913,mol/L
[O-][N+](=O)c1cccc(Cl)c1,water,298,-2.7612723,mol/L
CC(=O)c1ccc2ccccc2c1,water,298,-2.796418719,mol/L
[Na+].[Na+].Nc1ccc(N=Nc2ccc(N[S](=O)(=O)c3ccc(cc3)N=Nc4c(O)c5c(N)c(N=Nc6ccc(cc6)[N+]([O-])=O)c(cc5cc4[S]([O-])(=O)=O)[S]([O-])(=O)=O)cc2)c(N)c1,water,298,-0.525678621,mol/L
Nc1cccc(O)c1,water,298,-0.606572432,mol/L
CC(Cl)CCl,water,298,-1.621664713,mol/L
CCCCl,water,298,-1.463738192,mol/L
CCNc1ccccc1,water,298,-1.652077936,mol/L
CC(C)CCOCCC(C)C,water,298,-3.760107067,mol/L
[Na+].CN(c1ccccc1)[S](=O)(=O)C2=CC(=O)C3=C(NNc4ccc(NC(=O)CCl)cc4[S]([O-])(=O)=O)C(=N)C=CC3=C2,water,298,-4.35885707,mol/L
Cc1ccc(Cl)c(Cl)c1,water,298,-3.775545726,mol/L
COc1cc(c(OC)cc1N)[S](=O)(=O)Nc2ccccc2,water,298,-4.057692864,mol/L
Nc1ccc(\C=C\c2ccc(N)cc2[S](O)(=O)=O)c(c1)[S](O)(=O)=O,water,298,-4.137316594,mol/L
CC(C)CCO,water,298,-0.518711055,mol/L
CC(=O)CC(c1ccccc1)C2=C(O)Oc3ccccc3C2=O,water,298,-3.062508747,mol/L
[H+].[Cl-].CC1=CC(C=CC1=N)=C(c2ccc(N)cc2)c3ccc(N)cc3,water,298,-2.105483191,mol/L
Cc1ccc(N)cc1Cl,water,298,-1.727820447,mol/L
CC(C)CO[P](=O)(OCC(C)C)OCC(C)C,water,298,-3.002154647,mol/L
CC(C)CC(=O)CC(C)C,water,298,-1.731423923,mol/L
CC(C)(C)C1CCC(O)CC1,water,298,-2.772268906,mol/L
COC(=O)c1ccccc1C,water,298,-1.756647676,mol/L
CC(C)=C,water,298,-2.32906904,mol/L
CC(=O)OC[C@@H](OC(C)=O)C=C,water,298,-0.817681412,mol/L
Nc1cccc(O)c1,water,298,-0.622962848,mol/L
S=C1Nc2ccccc2N1,water,298,-1.761713933,mol/L
CC(C)CO[P](=O)(OCC(C)C)OCC(C)C,water,298,-3.010427173,mol/L
CCCc1nc(C)c2n1NC(=NC2=O)c3cc(ccc3OCC)[S](=O)(=O)N4CCN(CC)CC4,water,298,-4.843867866,mol/L
CCCCCCCC/C=C/CCCCCCCC(=O)NCCCN(C)C,water,298,-4.149259389,mol/L
Cc1c(Cl)cccc1Cl,water,298,-3.791936142,mol/L
O=C1CCCCCCCCCCC1,water,298,-3.845829997,mol/L
CC(C)=CCCC(C)(O)C#C,water,298,-1.772080431,mol/L
Cc1ccc(cc1[N+]([O-])=O)C(O)=O,water,298,-2.848098023,mol/L
COc1ccc(cc1N)[S](O)(=O)=O,water,298,-0.899724345,mol/L
CCCCOCCOCCOC(=O)C(C)=C,water,298,-1.954061516,mol/L
Oc1ccc(cc1O)C(=O)c2ccccc2,water,298,-2.92262005,mol/L
CCN(CCO)c1ccc(cc1)N=Nc2sc3cc(OC)ccc3[n+]2C.CC([O-])=O,water,298,-0.226272691,mol/L
[Co++].CCCCC(CC)C([O-])=O.CCCCC(CC)C([O-])=O,water,298,-1.139445442,mol/L
CCCCC(O)=O,water,298,-0.61122608,mol/L
CCCC1C[C@](C)(CCO1)OC(C)=O.CCCC2C[C@@](C)(CCO2)OC(C)=O,water,298,-2.204723233,mol/L
CCCBr,water,298,-1.691940386,mol/L
CCCCC(CC)CN,water,298,-1.713480463,mol/L
Cc1ccc(N)cc1Cl,water,298,-1.753126312,mol/L
Oc1ccc(c(O)c1)C2=C(O)C(=O)c3c(O)cc(O)cc3O2,water,298,-3.082409058,mol/L
N(c1ccccc1)c2ccccc2,water,298,-3.81684995,mol/L
S=C(Nc1ccccc1)Nc2ccccc2,water,298,-3.949456586,mol/L
[O--].[O--].[O--].[Sb+3].[Sb+3],water,298,-4.056423921,mol/L
N(c1ccccc1)c2ccccc2,water,298,-3.825349134,mol/L
CC(c1ccc(O)cc1)(c2ccc(O)cc2)c3ccc(O)cc3,water,298,-4.086559757,mol/L
[K].CCCCCCCCCCCCCCCCCC.O[P](O)(O)=O,water,298,-4.194201704,mol/L
Cc1ccc(Cl)cc1Cl,water,298,-3.808969481,mol/L
COC1OC(CO[S](=O)(=O)c2ccc(C)cc2)C3OC(C)(C)OC13,water,298,-4.156442533,mol/L
COc1ccccc1C,water,298,-2.689083393,mol/L
Nc1ccc(c(N)c1)[N+]([O-])=O,water,298,-0.789765086,mol/L
OC(=O)Cc1ccc(Cl)cc1Cl,water,298,-2.91914164,mol/L
CC(C)(c1ccc(O)cc1)c2ccc(O)cc2.ClCC3CO3,water,298,-5.029134765,mol/L
C=CCOc1nc(OCC=C)nc(OCC=C)n1,water,298,-3.00397306,mol/L
[Zr+4].CCC([O-])=O,water,298,-2.823279191,mol/L
CCCBr,water,298,-1.70071431,mol/L
Clc1ccc(cc1)C#N,water,298,-2.749354496,mol/L
CCCCOC(N)=O,water,298,-0.680456015,mol/L
NC(=O)c1ccccc1O,water,298,-1.749767985,mol/L
O=C1NSc2ccccc12,water,298,-1.792489366,mol/L
Nc1ccccc1.C=O,water,298,-1.899476391,mol/L
[O-][N+](=O)c1ccc(Cl)cc1,water,298,-2.811828673,mol/L
CC(C)c1ccc(C=O)cc1,water,298,-2.785256582,mol/L
CC(=C)C(=O)OCCCCOC(=O)C(C)=C,water,298,-2.969024542,mol/L
CCNc1ccccc1,water,298,-1.701424657,mol/L
NC(=O)c1ccccc1O,water,298,-1.755140769,mol/L
CCCCC(O)=O,water,298,-0.628954847,mol/L
CCC(=O)c1cccc(Cl)c1,water,298,-1.84670557,mol/L
C1OC1COc2ccccc2,water,298,-1.796392183,mol/L
OC(=O)CCCCCCCC(O)=O,water,298,-1.894461449,mol/L
O=C1CCCCCCCCCCOCCCCO1,water,298,-4.0179592,mol/L
Nc1nc(N)nc(Nc2nc(N)nc(N)n2)n1,water,298,-3.98229893,mol/L
CC(C)C,water,298,-3.376965668,mol/L
CC(C)CCCC(C)CC=O,water,298,-3.806483007,mol/L
N(c1ccccc1)c2ccccc2,water,298,-3.841079829,mol/L
CCCC,water,298,-3.376965668,mol/L
CC,water,298,-3.090743602,mol/L
C,water,298,-2.817895757,mol/L
CCC,water,298,-3.257019218,mol/L
S=C(Nc1ccccc1)Nc2ccccc2,water,298,-3.971688427,mol/L
C[C@]12CC[C@H]3[C@@H](CCC4=C3CCC(=O)C4)[C@@H]1CCC2=O,water,298,-4.054976729,mol/L
CCCBr,water,298,-1.710756249,mol/L
COc1ccc(Cl)cc1,water,298,-2.779325494,mol/L
C[C@@H]1C[C@H]2[C@@H]3C[C@H](F)C4=CC(=O)C=C[C@]4(C)[C@H]3[C@@H](O)C[C@]2(C)[C@H]1C(=O)CO,water,298,-3.203737155,mol/L
[Na+].[O-][S](=O)(=O)c1cccc(c1)N=Nc2ccc(Nc3ccccc3)cc2,water,298,-1.204686091,mol/L
CNC(=O)N(c1ccccc1)c2ccccc2,water,298,-2.983946158,mol/L
Nc1ccccc1c2ccccc2,water,298,-2.861113735,mol/L
ClCCO[P](=O)(OCCCl)OCC(CCl)(CCl)CO[P](=O)(OCCCl)OCCCl,water,298,-3.400175355,mol/L
OC(=O)C1CCC(CC1)C(O)=O,water,298,-0.872370724,mol/L
CCCBr,water,298,-1.7268328,mol/L
CCCBr,water,298,-1.727209465,mol/L
CCc1cccc2c(CCO)c[nH]c12,water,298,-1.91532641,mol/L
Cc1cc(Cl)ccc1O,water,298,-1.792346004,mol/L
S=C=S,water,298,-1.519913555,mol/L
S=C(Nc1ccccc1)Nc2ccccc2,water,298,-3.979238438,mol/L
CCOC(C)OC(C)(CCC=C(C)C)C=C,water,298,-3.976401784,mol/L
[Cu+].[S-]C#N,water,298,-3.706646376,mol/L
O=C(c1ccccc1)c2ccccc2,water,298,-3.882202908,mol/L
CCCC(=O)OC(C)C1CCCCC1,water,298,-3.920758898,mol/L
CCC1(CC=C2CCCc3cc(OC)ccc23)C(O)CCC1=O,water,298,-4.122768724,mol/L
S=C(Nc1ccccc1)Nc2ccccc2,water,298,-3.987106638,mol/L
CCC(C)c1ccccc1,water,298,-3.758607848,mol/L
[Na+].CC(=O)Nc1cccc(Nc2cc(c(N)c3C(=O)c4ccccc4C(=O)c23)[S]([O-])(=O)=O)c1,water,298,-4.307910861,mol/L
CCOCCCCCCCCCCCCCC\C=C\CC,water,298,-4.109034224,mol/L
CC(=O)OC(C)(C)C1CCC(=CC1)C,water,298,-3.931170339,mol/L
CC(C)=CCC\C(C)=C\CCC(C)(O)C=C,water,298,-3.985352266,mol/L
CC(=C)C(=O)OCCCCCCOC(=O)C(C)=C,water,298,-4.043662925,mol/L
C[C@]12CC[C@H]3[C@@H](CCC4=C3CCC(=O)C4)[C@@H]1CCC2=O,water,298,-4.073460135,mol/L
Nc1ccc(cc1)C(F)(F)F,water,298,-2.847330143,mol/L
[O-][N+](=O)c1ccc(Cl)cc1,water,298,-2.845252428,mol/L
[Cl-].CC[N+](CC)(CC)Cc1ccccc1,water,298,-0.007265664,mol/L
ClCCCBr,water,298,-1.846861546,mol/L
FC(F)=C(F)C(F)(F)F,water,298,-2.824355749,mol/L
ClCCCBr,water,298,-2.846861546,mol/L
OC(=O)CCCCCCCCC(O)=O,water,298,-2.955640512,mol/L
[Na+].[Na+].[O-]C(=O)CCCCCCCCC([O-])=O,water,298,-3.041064725,mol/L
O=C1CCCCCCCCCCCN1,water,298,-2.946870646,mol/L
CCC=C,water,298,-2.402671814,mol/L
CCCCOCCOCCOC(=O)C(C)=C,water,298,-2.015948507,mol/L
CCCCOCOCCCC,water,298,-2.857486993,mol/L
Oc1ccc(cc1)C(c2ccc(O)cc2)(C(F)(F)F)C(F)(F)F,water,298,-3.179502969,mol/L
CC(=O)c1cccc2ccccc12,water,298,-2.884634649,mol/L
CC(C)c1ccc(N)cc1,water,298,-1.785831196,mol/L
[OH-].[Cr+3].CCCCC(CC)COCCCN.CC(=O)\C(=N/Nc1cc(cc(c1[O-])[S]([O-])(=O)=O)[N+]([O-])=O)C(=O)[N-]c2ccccc2.[H+],water,298,-3.485996843,mol/L
[Na+].[Na+].COc1cc(c(C)cc1N\N=C2\C(=O)C=Cc3cc(ccc23)[S]([O-])(=O)=O)[S]([O-])(=O)=O,water,298,-0.353435338,mol/L
CSC,water,298,-0.450927601,mol/L
COc1ccc(N)cc1,water,298,-0.748029368,mol/L
CCCCCO,water,298,-0.602799636,mol/L
COc1ccc(cc1N)[N+]([O-])=O,water,298,-1.883279356,mol/L
CC(=C)C(=O)OCC=C,water,298,-1.758481787,mol/L
FC(F)(I)C(F)(F)C(F)(F)C(F)(F)I,water,298,-3.314476262,mol/L
CCCCCCCCCCCCCCCCCC(=O)NCCCN(C)C,water,298,-3.224191557,mol/L
CC(C)(C)c1cc(CO)cc(c1O)C(C)(C)C,water,298,-4.012782104,mol/L
Clc1cc(Cl)c(Cl)nc1Cl,water,298,-3.98211507,mol/L
CC(C)CCOCCc1ccccc1,water,298,-3.933735783,mol/L