Solute,Solvent,Temperature_K,Solubility,Units
[Na+].[Na+].[Na+].[O-]C(=O)CN(CC([O-])=O)CC([O-])=O,water,298,0.558406211,mol/L
[Ca++].O[P](O)([O-])=O.O[P](O)([O-])=O,water,298,-0.396643053,mol/L
[Na+].OC([O-])=O,water,298,0.04603657,mol/L
[Cl].[Fe].[O-][S]([O-])(=O)=O,water,298,0.691108632,mol/L
[Cl-].[Cl-].[Cl-].[Fe+3],water,298,0.753726268,mol/L
[Fe++].[O-][S]([O-])(=O)=O,water,298,0.782207181,mol/L
[Cl].[Fe].[O-][S]([O-])(=O)=O,water,298,0.690636316,mol/L
[Cl-].[Cl-].[Cl-].[Fe+3],water,298,0.753253952,mol/L
[Fe++].[O-][S]([O-])(=O)=O,water,298,0.781734866,mol/L
[Cl].[Fe].[O-][S]([O-])(=O)=O,water,298,0.687315643,mol/L
[Cl-].[Cl-].[Cl-].[Fe+3],water,298,0.749933279,mol/L
[Fe++].[O-][S]([O-])(=O)=O,water,298,0.778414192,mol/L
[K+].CN(C)CC([O-])=O,water,298,0.809172864,mol/L
[K+].OC([O-])=O,water,298,0.953747696,mol/L
CC(=C)CCO,water,298,0.019067893,mol/L
O=C1CCCCC1,water,298,-0.03762567,mol/L
[Na+].CCC(C)c1cc(cc(n2nc3ccccc3n2)c1O)[S]([O-])(=O)=O,water,298,-1.57624495,mol/L
OC(Cn1ccnc1)c2ccc(Cl)cc2Cl,water,298,-1.421576903,mol/L
NCCN,water,298,-0.792102738,mol/L
Cc1ccc(N)cc1,water,298,-1.047745261,mol/L
OC1=CC(=O)NC=N1,water,298,-1.067287887,mol/L
[Na+].[Na+].Cc1ccc(cc1[S]([O-])(=O)=O)[S](=O)(=O)c2cc(NC(=O)C(Br)=C)ccc2N=Nc3c(N)ccc4cc(ccc34)[S]([O-])(=O)=O,water,298,-1.894836231,mol/L
CC1CCC2C(C1)C(=O)OC2=O,water,298,-1.24808173,mol/L
Sc1ccccc1Cl,water,298,-1.188043537,mol/L
CCOc1ccccc1O,water,298,-1.171451504,mol/L
CCC1(COCOC1)COC(=O)C=C,water,298,-1.333054875,mol/L
C[C@@](CCC([O-])=O)(N=N[C@](C)(CCC([O-])=O)C#N)C#N,water,298,-1.475980318,mol/L
CC(C)OC(=O)C(F)(F)F,water,298,-1.224928301,mol/L
COc1cc(C=O)ccc1O,water,298,-1.228026593,mol/L
BrCBr,water,298,-1.285894713,mol/L
[Na+].[Na+].[O-][Se]([O-])=O,water,298,0.715388416,mol/L
[Na+].[Cl-].[O-]C(=O)c1ccc[n+](Cc2ccccc2)c1,water,298,0.519220267,mol/L
[Na+].[Na+].[O-][Se]([O-])=O,water,298,0.714904522,mol/L
CC(C)(N)C#C,water,298,1.031655988,mol/L
CN=C(NCC1CCOC1)N[N+]([O-])=O,water,298,-0.353018777,mol/L
[Na+].[O-][V](=O)=O,water,298,0.266461374,mol/L
[Na+].[Na+].CCN1C(=O)C(=N/Nc2cc(Nc3nc(F)nc(Nc4cc(ccc4Cl)[S]([O-])(=O)=O)n3)ccc2[S]([O-])(=O)=O)\C(=C(C(N)=O)C1=O)C,water,298,-0.921034384,mol/L
CC(C)C(N)C(O)=O,water,298,-0.121791608,mol/L
CN(C)CCCNCCCN(C)C,water,298,0.668404592,mol/L
CC(O)CNCC(C)O,water,298,0.815044373,mol/L
CCOC(C)=O,water,298,-0.00101661,mol/L
C1N2CN3CN1CN(C2)C3,water,298,0.792402682,mol/L
O=C1CCCCCN1,water,298,0.884275563,mol/L
O.O.O.O.O.O.O.[Cl-].[Cl-].[Cl-].[La+3],water,298,0.365226597,mol/L
CCC1CO1,water,298,0.080542298,mol/L
[Al+3].[O-]C=O.[O-]C=O.[O-]C=O,water,298,-0.274600322,mol/L
O=C1CCCCC1,water,298,-0.057369728,mol/L
[Cl-].[Cl-].[Zn++],water,298,0.79544645,mol/L
[NH4+].[NH4+].[O-][S](=O)(=O)OO[S]([O-])(=O)=O,water,298,0.571095673,mol/L
[Na+].[O-]C(=O)CCl,water,298,0.863171292,mol/L
CC(O)C(N)C(O)=O,water,298,-0.143003863,mol/L
CC(C)CO,water,298,0.059465937,mol/L
CC(C)CCO,water,298,-0.015803391,mol/L
[Na+].[O-]N=O,water,298,1.089578233,mol/L
[Cl-].C[N+](C)(C)CC(O)CCl,water,298,0.647406308,mol/L
[Cl-].C[N+](C)(C)CC(O)CCl,water,298,0.647302298,mol/L
CC(O)CN(CC(C)O)CC(C)O,water,298,0.637428964,mol/L
CC(C)(CO)CO,water,298,0.901422988,mol/L
CCOC(C)=O,water,298,-0.025404461,mol/L
[Cl].[Cl].[Rh].[Rh].C\1C\C=C/CC\C=C1.C\2C\C=C/CC\C=C2,water,298,-2.499798074,mol/L
[K+].OC(=O)c1ccccc1C([O-])=O,water,298,-0.391024433,mol/L
[Na+].[Na+].[Na+].[Na+].[Na+].[Na+].[O-][W]([O-])(=O)=O.[O-][W]([O-])(=O)=O.[O-][W]([O-])(=O)=O.O=[W](=O)=O.O=[W](=O)=O.O=[W](=O)=O.O=[W](=O)=O.O=[W](=O)=O.O=[W](=O)=O.O=[W](=O)=O.O=[W](=O)=O.O=[W](=O)=O,water,298,-0.472461116,mol/L
C[Sn](C)(Cl)Cl,water,298,0.573595477,mol/L
[Na+].[O-]C(=O)CCl,water,298,0.848624184,mol/L
O=C1CCCCCN1,water,298,0.860120914,mol/L
[Na+].[O-]C=O,water,298,1.081260235,mol/L
[Na+].[O-]N=O,water,298,1.074996233,mol/L
[Na+].Cc1ccc(cc1)[S]([O-])(=O)=O,water,298,0.624533151,mol/L
COc1ccc([NH2+]CCO)cc1[NH3+].[O-][S]([O-])(=O)=O,water,298,-0.534342295,mol/L
C=CCNCC=C,water,298,-0.079006957,mol/L
CO[P](=O)(CCC(=O)NCO)OC,water,298,1.578490674,mol/L
NC(CO)(CO)CO,water,298,0.819816758,mol/L
[Ca++].CCCCC(CC)C([O-])=O.CCCCC(CC)C([O-])=O,water,298,-0.608613835,mol/L
CCOC(C)=O,water,298,-0.04028994,mol/L
OCCN(CCO)c1nc(Nc2ccccc2)nc(Nc3ccc(\C=C\c4ccc(Nc5nc(Nc6ccccc6)nc(n5)N(CCO)CCO)cc4[S](O)(=O)=O)c(c3)[S](O)(=O)=O)n1,water,298,-1.059279349,mol/L
N#CCCCCC#N,water,298,-0.130912442,mol/L
CC(=O)CC(=O)Nc1ccccc1,water,298,-1.299081064,mol/L
O=C1OC(=O)c2cc3C(=O)OC(=O)c3cc12,water,298,-1.392734785,mol/L
ClCCCl,water,298,-1.050977015,mol/L
CO[S]([O-])(=O)=O.CN(N=CC1=[N+](C)c2ccccc2C1(C)C)c3ccc(C)cc3,water,298,-1.676206054,mol/L
COc1ccc(cc1)N(C)N=CC2=[N+](C)c3ccccc3C2(C)C.CO[S]([O-])(=O)=O,water,298,-1.692536484,mol/L
CCCCC(CC)(CO)CO,water,298,-1.260334336,mol/L
Cc1ccc(O)c(C)c1,water,298,-1.142965034,mol/L
ClCCOCOCCCl,water,298,-1.298125842,mol/L
ClC(Cl)Cl,water,298,-1.137405046,mol/L
CI,water,298,-1.214583849,mol/L
NC(CCC(O)=O)C(O)=O,water,298,-1.231187493,mol/L
NC(CCC(O)=O)C(O)=O,water,298,-1.232698084,mol/L
CC\C=C(/C)C=O,water,298,-1.057369728,mol/L
NC(CCC(O)=O)C(O)=O,water,298,-1.234720413,mol/L
O=C1OC(=O)c2cc3C(=O)OC(=O)c3cc12,water,298,-1.406221724,mol/L
CCCCOC(=O)CCC(C)=O,water,298,-1.306674746,mol/L
CC1CCC2C(C1)C(=O)OC2=O,water,298,-1.301526049,mol/L
[Li+].[Li+].[O-]C([O-])=O,water,298,-0.944306381,mol/L
[Ca++].CCCCC(CC)C([O-])=O.CCCCC(CC)C([O-])=O,water,298,-1.591715559,mol/L
OC(=O)CC1(CCCCC1)CC(O)=O,water,298,-1.385083875,mol/L
Cc1cccc(C)c1N,water,298,-1.167514488,mol/L
COC(=O)C1CCC(CC1)C(=O)OC,water,298,-1.387194666,mol/L
CC(C)C(C)=O,water,298,-1.020831459,mol/L
[Na+].CCCCC(CC)COC(=O)CC(C(=O)OCC(CC)CCCC)[S]([O-])(=O)=O,water,298,-1.735714189,mol/L
NC(=O)c1ccc(N)cc1,water,298,-1.225545386,mol/L
CN1C(=O)N(C)c2nc[nH]c2C1=O,water,298,-1.35258526,mol/L
CC(=O)c1ccccc1,water,298,-1.176637403,mol/L
CC(CC#N)CC(C)(C)C#N.CC(CC(C)(C)CC#N)C#N,water,298,-1.574682221,mol/L
CN(C)Cc1ccccc1,water,298,-1.227918826,mol/L
ClC(Cl)Cl,water,298,-1.173834312,mol/L
[NH4+].[Br-],water,298,1.908299785,mol/L
C=CC(=O)OCC1CCCO1,water,298,-0.295451716,mol/L
OC(=O)\C=C\C(O)=O,water,298,0.83179875,mol/L
[K+].CC(=O)CC(=O)Nc1ccc(cc1)[S]([O-])(=O)=O,water,298,0.421747335,mol/L
CCOC1=C(O)C(=O)O[C@@H]1[C@@H](O)CO,water,298,0.580970652,mol/L
[Na+].[Na+].[Na+].[Na+].CC(O)([P]([O-])([O-])=O)[P]([O-])([O-])=O,water,298,0.420460109,mol/L
COC(=O)\C=C/C(=O)OC,water,298,-0.267204876,mol/L
Cc1cc(O)ccc1O,water,298,-0.207417517,mol/L
CNC(=O)NC,water,298,0.938636234,mol/L
S,water,298,1.350555544,mol/L
[NH4+].[NH4+].[NH4+].[NH4+].[O-][Mo]([O-])(=O)=O.[O-][Mo]([O-])(=O)=O,water,298,-2.580479862,mol/L
[Na+].CCCCC(CC)CN(CCC(O)=O)CCC([O-])=O,water,298,0.410469265,mol/L
[Li+].[Li+].[O-]C(=O)CCCCC([O-])=O,water,298,-0.314450306,mol/L
[Li+].[Li+].[O-]C(=O)CCCCCCCCC([O-])=O,water,298,-0.446420352,mol/L
[Li+].[Li+].[O-]C(=O)CCCCCCCC([O-])=O,water,298,-0.416994444,mol/L
[Cu++].CC([O-])=O.CC([O-])=O,water,298,-0.375535712,mol/L
[Cu++].CC([O-])=O.CC([O-])=O,water,298,-0.376672609,mol/L
[Cu++].CC([O-])=O.CC([O-])=O,water,298,-0.377242176,mol/L
[H+].[Cl-].CN(C)C,water,298,0.899333987,mol/L
S,water,298,1.344833531,mol/L
CNC.OC(=O)COc1ccc(Cl)cc1Cl,water,298,0.449977221,mol/L
COCCC(=O)OC,water,298,0.802693707,mol/L
[K+].[O-]C#N,water,298,0.965960091,mol/L
OCCCCOC=C,water,298,-0.18999534,mol/L
[K+].[O-]P=O,water,298,0.862674821,mol/L
O.[Na+].[O-]P=O,water,298,0.854635653,mol/L
CCCCOCC1CO1.CC(C)N.FB(F)F,water,298,-0.53795425,mol/L
[Cl-].C(c1ccccc1)[P+](c2ccccc2)(c3ccccc3)c4ccccc4,water,298,-0.718824561,mol/L
[Na+].[O-][S](=O)(=O)C(CC(=O)OC1CCCCC1)C(=O)OC2CCCCC2,water,298,-0.714701597,mol/L
CN(CCC#N)c1ccc(cc1)C=CC2=[N+](C)c3ccccc3C2(C)C.[O-][S]([O-])(=O)=O,water,298,-0.774172069,mol/L
CCCCO,water,298,-0.000721269,mol/L
[Na+].NC(CCC(O)=O)C([O-])=O,water,298,0.640470013,mol/L
[Cl-].N[C@@H](CS)C(O)=O.[H+],water,298,0.669703311,mol/L
[nH]1cncn1,water,298,1.024052268,mol/L
[Na+].[Na+].[O-][S](=O)(=O)OO[S]([O-])(=O)=O,water,298,0.486552521,mol/L
[Na+].CC1=NN(C(=O)C1N=Nc2ccc(C)c(c2)[S](=O)(=O)Nc3ccccc3)c4ccc(cc4)[S]([O-])(=O)=O,water,298,-0.872552369,mol/L
Cc1ccc(N)cc1,water,298,-0.163729155,mol/L
OC(=O)C=C,water,298,0.00596733,mol/L
CN,water,298,1.368643478,mol/L
[Na+].[O-]N1C=CC=CC1=S,water,298,0.684131264,mol/L
CCCC(C)=O,water,298,-0.074237995,mol/L
Oc1ccc(O)cc1,water,298,-0.184502155,mol/L
[Na+].[Fe+3].[O-]C(=O)CN(CCN(CC([O-])=O)CC([O-])=O)CC([O-])=O,water,298,-0.707389182,mol/L
C=CC(=O)OC1C=CC2C3CCC(C3)C12,water,298,-3.708142472,mol/L
Oc1cccc(O)c1,water,298,0.813684505,mol/L
[Na+].[O-][S](=O)(=O)CC=C,water,298,0.694952865,mol/L
[Na+].[Na+].[Na+].[Na+].Cc1cc(Nc2nc(NCCO)nc(Nc3ccc(N=Nc4cc5c(cccc5[S]([O-])(=O)=O)c(c4)[S]([O-])(=O)=O)c(C)c3)n2)ccc1N=Nc6cc7c(cccc7[S]([O-])(=O)=O)c(c6)[S]([O-])(=O)=O,water,298,-1.174873472,mol/L
Oc1ccc(O)cc1,water,298,-0.190576302,mol/L
COc1ccc2cc(oc2c1)C3N(C)c4cc(ccc4[NH+]3C)[S](C)(=O)=O.CC([O-])=O,water,298,0.212574469,mol/L
[Na+].OCCN1CCN(CC1)CC[S]([O-])(=O)=O,water,298,0.431866679,mol/L
NC(=O)[C@@H]1CCC[NH2+]1,water,298,0.785359758,mol/L
[nH]1cncn1,water,298,1.005827448,mol/L
[H+].[Br-],water,298,1.377544373,mol/L
[Na+].[O-]C=O,water,298,1.012544423,mol/L
CC(=O)OCC(COC(C)=O)OC(C)=O,water,298,-0.493766658,mol/L
CC(C)CO,water,298,-0.024854948,mol/L
Oc1ccc(O)cc1,water,298,-0.196736611,mol/L
CN=C=S,water,298,-0.96421568,mol/L
ClCCCl,water,298,-1.097832595,mol/L
NC(CC(O)=O)C(O)=O,water,298,-1.229318187,mol/L
[I-].CC[P+](c1ccccc1)(c2ccccc2)c3ccccc3,water,298,-1.727128194,mol/L
[V],water,298,-0.814424958,mol/L
Nc1ccc(Nc2ccc(cc2[S](O)(=O)=O)[N+]([O-])=O)cc1,water,298,-1.59828953,mol/L
CCOC=C,water,298,-0.965882825,mol/L
[Cl-].Cn1c2ccccc2c(C=CC3=[N+](C)c4ccccc4C3(C)C)c1c5ccccc5,water,298,-1.743927996,mol/L
C1COC=CC1,water,298,-1.038398213,mol/L
CC(C)(O)C(=O)c1ccc(OCCO)cc1,water,298,-1.471074866,mol/L
CCCCCCC(O)CO,water,298,-1.289975217,mol/L
CC(C)OC(=O)C(F)(F)F,water,298,-1.318349986,mol/L
ClCl,water,298,-0.980864778,mol/L
CCN(C(C)C)C(C)C,water,298,-1.241602263,mol/L
CN1C(=O)N(C)c2nc[nH]c2C1=O,water,298,-1.386443527,mol/L
CCc1ccc(O)cc1,water,298,-1.21772219,mol/L
Cc1ccc(N)cc1,water,298,-1.160784774,mol/L
Cc1ccc(N)cc1,water,298,-1.161372055,mol/L
[Na].Nc1cc(c(O)c2C(=O)c3c(N)cc(c(O)c3C(=O)c12)[S](O)(=O)=O)[S](O)(=O)=O,water,298,-1.799112619,mol/L
CC(C)OC(=O)C(F)(F)F,water,298,-1.336078753,mol/L
[Na+].[Na+].CN=C1C=CC2=CC(=CC(=O)C2=C1NNc3ccc(NC(=O)C(Br)=C)cc3[S]([O-])(=O)=O)[S]([O-])(=O)=O,water,298,-1.947653209,mol/L
[Na+].CCOc1ccc(C)cc1N=Nc2ccc(N=Nc3cccc(c3)[S]([O-])(=O)=O)c4ccccc24,water,298,-1.847135544,mol/L
OC(=O)\C=C\C(O)=O,water,298,-1.219629428,mol/L
CC(O)CN(CC(C)O)c1ccc(C)cc1,water,298,-1.5038218,mol/L
CCCCOCCOCCOCCCC,water,298,-1.494029299,mol/L
CCO[S](=O)(=O)OCC,water,298,-1.342949719,mol/L
[Na+].CN(Cc1ccc(Nc2cc(c(N)c3C(=O)c4ccccc4C(=O)c23)[S]([O-])(=O)=O)cc1)[S](=O)(=O)c5ccc(C)cc5,water,298,-1.942821991,mol/L
[Mg].[Mg].[Mg].OC(=O)CC(O)(CC(O)=O)C(O)=O.OC(=O)CC(O)(CC(O)=O)C(O)=O,water,298,-1.814971134,mol/L
[K+].[O-]C(=O)C(F)(F)F,water,298,0.661069302,mol/L
[Na+].[Na+].[O-][P]([O-])(F)=O,water,298,0.684400587,mol/L
OC=O,water,298,1.175855294,mol/L
Oc1ccc(O)cc1,water,298,-0.199225411,mol/L
[NH4+].[NH4+].OC(=O)CN(CCN(CC(O)=O)CC([O-])=O)CC([O-])=O,water,298,0.322699056,mol/L
[Li+].CC([O-])=O,water,298,1.014339154,mol/L
OC=O,water,298,1.169515116,mol/L
CCCCCCCCCCCC[N+](C)(C)CC(O)C[S]([O-])(=O)=O,water,298,0.286518104,mol/L
[Li+].[Li+].[O-]C(=O)CCCCC([O-])=O,water,298,-0.362988505,mol/L
[Li+].[Li+].[O-]C(=O)CCCCCCCCC([O-])=O,water,298,-0.49495855,mol/L
[Li+].[Li+].[O-]C(=O)CCCCCCCC([O-])=O,water,298,-0.465532642,mol/L
CC(=C)C=O,water,298,-0.010606155,mol/L
Oc1cccc(O)c1,water,298,0.789395043,mol/L
[K+].[Br-],water,298,0.755675434,mol/L
Cc1ccc(cc1[S](O)(=O)=O)[N+]([O-])=O,water,298,0.492439953,mol/L
[Cr+3].CC([O-])=O.CC([O-])=O.CC([O-])=O,water,298,0.469225609,mol/L
O[C@@H](C(O)=O)c1ccccc1Cl,water,298,-0.439027901,mol/L
COC(=O)\C=C/C(=O)OC,water,298,-0.330082437,mol/L
[Na+].[Na+].[O-][S](=O)(=O)c1ccc2c(C=CC(=O)/C2=N/Nc3ccc(N=Nc4ccc(Nc5ccccc5)c(c4)[S]([O-])(=O)=O)c6ccccc36)c1,water,298,-1.015630004,mol/L
[I-].[Cs+],water,298,0.411226108,mol/L
[Cl-].CN1C[NH+](C=C)C=C1,water,298,0.658580285,mol/L
Cc1ccc(cc1[S](O)(=O)=O)[N+]([O-])=O,water,298,0.487262014,mol/L
[Na+].[Na+].[Na+].OC(CC([O-])=O)(CC([O-])=O)C([O-])=O,water,298,0.412389995,mol/L
[Na+].[O-]N=O,water,298,0.98465661,mol/L
[nH]1ccnc1,water,298,0.988500361,mol/L
[Cl-].N[C@@H](CS)C(O)=O.[H+],water,298,0.621927102,mol/L
[Ru+3].[Ru+3].[Ru+3].CC([O-])=O.CC([O-])=O.CC([O-])=O.CC([O-])=O.CC([O-])=O.CC([O-])=O.CC([O-])=O,water,298,-0.03568317,mol/L
CC(=O)CC(c1ccccc1)C2=C(O)Oc3ccccc3C2=O,water,298,-0.668621486,mol/L
CCCCO,water,298,-0.050409053,mol/L
[Na+].[Na+].[O-][Mo]([O-])(=O)=O,water,298,0.502020447,mol/L
[Cl].[Fe].[O-][S]([O-])(=O)=O,water,298,0.540234161,mol/L
[Cl-].[Cl-].[Cl-].[Fe+3],water,298,0.602851797,mol/L
[Na+].[Na+].[Na+].[Na+].OCCN(CCO)c1nc(Nc2ccc(cc2)[S]([O-])(=O)=O)nc(Nc3ccc(\C=C\c4ccc(Nc5nc(Nc6ccc(cc6)[S]([O-])(=O)=O)nc(n5)N(CCO)CCO)c(c4)[S]([O-])(=O)=O)cc3[S]([O-])(=O)=O)n1,water,298,-0.253433444,mol/L
[Fe++].[O-][S]([O-])(=O)=O,water,298,0.631332711,mol/L
ClCC1CO1,water,298,-0.1480332,mol/L
[Na+].COc1ccc(cc1)N=Nc2ccc(cc2OC)N=Nc3cccc(c3)[S]([O-])(=O)=O,water,298,-0.83545917,mol/L
OC(CC(O)=O)C(O)=O,water,298,0.683249026,mol/L
[Na+].[O-]N1C=CC=CC1=S,water,298,0.637012443,mol/L
OC(=O)CC(O)(CC(O)=O)C(O)=O,water,298,0.524631613,mol/L
[Na+].OC[C@H](O)C1OC(=O)[C-](O)C1=O,water,298,0.511043092,mol/L
[Cl-].[Cl-].[Ni++],water,298,0.694933378,mol/L
CCOCC,water,298,-0.057708292,mol/L
[Na+].Cc1c(CNC(=O)CCl)c(C)c(Nc2cc(c(N)c3C(=O)c4ccccc4C(=O)c23)[S]([O-])(=O)=O)c(C)c1CNC(=O)CCl,water,298,-1.017551933,mol/L
CCCCOCCOCCOC(C)=O,water,298,-0.504016111,mol/L
CC(C)=CCO,water,298,-0.128994642,mol/L
[Ca++].N[S]([O-])(=O)=O.N[S]([O-])(=O)=O,water,298,0.438861216,mol/L
NCCCCCCN,water,298,0.738903406,mol/L
[Na+].OC[S]([O-])=O,water,298,0.731520726,mol/L
[nH]1ccnc1,water,298,0.968390542,mol/L
[Na+].N[C@@H](CC(O)=O)C([O-])=O,water,298,0.609927332,mol/L
[Cl-].CC[N+](CC)(CC)Cc1ccccc1,water,298,0.441826868,mol/L
[Li+].CC([O-])=O,water,298,0.979895328,mol/L
[Mn++].[O-][P]([O-])([O-])=O.[O-][P]([O-])([O-])=O,water,298,0.41039078,mol/L
CCC(C)(C)OO,water,298,-0.216594575,mol/L
NCCc1ccccc1,water,298,-0.28238117,mol/L
CCCCO,water,298,-0.06923591,mol/L
COC(=O)CCCC(=O)OC,water,298,-0.404549105,mol/L
CC1(C)CC(O)CC(C)(C)N1[O],water,298,0.562703544,mol/L
[Na+].Cc1cccc2n[n-]nc12,water,298,0.605167428,mol/L
NC(N)=O,water,298,1.016628187,mol/L
O=C1CCC(=O)O1,water,298,-0.201666274,mol/L
OB(O)O,water,298,0.004937559,mol/L
[Ca++].[Ca++].[Ca++].[O-]B([O-])[O-].[O-]B([O-])[O-],water,298,-0.580148931,mol/L
[K].OB(O)O,water,298,-0.207866699,mol/L
[Ca++].CCC([O-])=O.CCC([O-])=O,water,298,-0.476934722,mol/L
OCC(CO)(CO)CO,water,298,-0.341616387,mol/L
CC(C)C(O)=O,water,298,0.84598299,mol/L
CC(C)C(=O)OC(=O)C(C)C,water,298,0.591790232,mol/L
[Cl-].N[C@@H](CS)C(O)=O.[H+],water,298,0.591963878,mol/L
[Na+].[O-]C(=O)[C@@H]1CCC(=O)N1,water,298,0.608204633,mol/L
[Na+].[Na+].CCN(Cc1cccc(c1)[S]([O-])(=O)=O)c2ccc(cc2)[C+](c3ccc(cc3)N(CC)Cc4cccc(c4)[S]([O-])(=O)=O)c5ccccc5[S]([O-])(=O)=O,water,298,-0.113158037,mol/L
[Na+].[Na+].[O-][P](=O)=O,water,298,0.689301474,mol/L
CC1(C)C(O)C(C)(C)C1O,water,298,-0.373677588,mol/L
[K+].[K+].[K+].OC(CC([O-])=O)(CC([O-])=O)C([O-])=O,water,298,0.296193785,mol/L
OCCOCCOCCCNc1ccc(NCCCOCCOCCO)c2C(=O)c3ccccc3C(=O)c12,water,298,0.057188696,mol/L
CC(O)=O,water,298,1.001717808,mol/L
OC(=O)CCC(=O)C(O)=O,water,298,0.614880073,mol/L
[Na+].[Na+].[O-][S](=O)(=O)CCCSSCCC[S]([O-])(=O)=O,water,298,0.228652636,mol/L
COC(C)CCOC(C)=O,water,298,-0.381860211,mol/L
CC(=C)C=O,water,298,-0.067511006,mol/L
CC(C)C=O,water,298,-0.079826177,mol/L
CC(C)O[P](S)(=S)OC(C)C,water,298,-0.552854708,mol/L
CCN(C(C)C)C(C)C,water,298,-1.267565049,mol/L
O=Cc1ccccc1,water,298,-1.183828806,mol/L
CNC(=O)C(C)(C(C)C)C(C)C,water,298,-1.394867706,mol/L
[Al+3].CCCC[O-].CCCC[O-].CCCC[O-],water,298,-1.553292796,mol/L
ClC(Cl)=O,water,298,-1.160845842,mol/L
CCS,water,298,-0.960841369,mol/L
OC(=O)CC1(CCCCC1)CC(O)=O,water,298,-1.47223405,mol/L
[Sr],water,298,-1.113943352,mol/L
NC(=O)CC[C@H](NC(=O)C[NH3+])C([O-])=O,water,298,-0.194310278,mol/L
[Li].[Na].[K].CC(C)(C)c1ccc(cc1)[S](=O)(=O)Nc2ccc3cc(ccc3c2)[S](=O)(=O)c4cc5N=C6C(=C7Oc8c(ccc(N)c8[S](O)(=O)=O)N=C7C(=C6Oc5c(c4N)[S](O)(=O)=O)Cl)Cl,water,298,-2.180765898,mol/L
CCSC,water,298,-1.056973282,mol/L
NC(CC(O)=O)C(O)=O,water,298,-1.30006201,mol/L
O=C1CC(=O)NC(=O)N1,water,298,-1.283574599,mol/L
Cc1ccc(N)cc1,water,298,-1.207848414,mol/L
O=Cc1ccccc1,water,298,-1.209572311,mol/L
CCC(C)(OO)OOC(C)(CC)OO,water,298,-1.507773246,mol/L
CN[C@@H](C)[C@@H](O)c1ccccc1,water,298,-1.405191317,mol/L
c1ccc2ncccc2c1,water,298,-1.298221405,mol/L
CCOC(=O)C(C)C,water,298,-1.255496889,mol/L
S=[Sr],water,298,0.003660289,mol/L
O=C1OC(=O)c2ccccc12,water,298,-1.364424933,mol/L
Cl\C=C\Cl,water,298,-1.187180386,mol/L
CC(=O)c1ccccc1,water,298,-1.292266915,mol/L
Nc1cccc(Cl)c1,water,298,-1.319720963,mol/L
c1ccc2ncccc2c1,water,298,-1.325093551,mol/L
CC(=O)c1ccccc1,water,298,-1.294397555,mol/L
CC(=O)c1ccccc1.CC(C)(O)c2ccccc2.Oc3ccccc3,water,298,-1.759306143,mol/L
[Na+].[Na+].Nc1c2C(=O)c3ccccc3C(=O)c2c(cc1[S]([O-])(=O)=O)c4cc(c(N)c5C(=O)c6ccccc6C(=O)c45)[S]([O-])(=O)=O,water,298,-2.030180053,mol/L
CCN1CCCCC1,water,298,-1.275710522,mol/L
Cc1ccc(N)c(c1)[S](O)(=O)=O,water,298,-1.494200991,mol/L
Nc1cccc(Cl)c1,water,298,-1.327610922,mol/L
OC(=O)c1cc(C(O)=O)c(cc1C(O)=O)C(O)=O.C2CN=C(N2)c3ccccc3.C4CN=C(N4)c5ccccc5,water,298,-1.959467524,mol/L
c1ccc2ncccc2c1,water,298,-1.332983511,mol/L
O=C1NCCN1,water,298,0.840273374,mol/L
OC(=O)CC(O)(CC(O)=O)C(O)=O,water,298,0.488742347,mol/L
[O--].[O--].[O--].[Fe+3].[Fe+3],water,298,-3.726148307,mol/L
NCCCCCC(O)=O,water,298,0.651193758,mol/L
[NH3+]O.[NH3+]O.[O-][S]([O-])(=O)=O,water,298,0.553426318,mol/L
[Cl-].[Cl-].[Co++],water,298,0.654418336,mol/L
Oc1ccccc1O,water,298,0.724578196,mol/L
[K+].O[P](O)(O)=O,water,298,0.628656443,mol/L
OC(C(O)C(O)=O)C(O)=O,water,298,0.588582801,mol/L
[K+].O[C@H]([C@@H](O)C([O-])=O)C(O)=O,water,298,0.490358752,mol/L
[Na+].[K+].O[C@H]([C@@H](O)C([O-])=O)C([O-])=O,water,298,0.442377058,mol/L
[Na+].[Na+].[Na+].[Na+].[O-]C(=O)CN(CCN(CC([O-])=O)CC([O-])=O)CC([O-])=O,water,298,0.183447866,mol/L
CCC(COCCOC(=O)C=C)(COCCOC(=O)C=C)COCCOC(=O)C=C,water,298,-0.862551202,mol/L
[Na+].[Na+].[Na+].[Na+].[O-][P]([O-])(=O)O[P]([O-])([O-])=O,water,298,-0.657564105,mol/L
[K+].CCCCCCCCCCCCCC(=O)N[C@@H](CCC(O)=O)C([O-])=O,water,298,-0.830822577,mol/L
CCOC(=O)CC(O)(CC(=O)OCC)C(=O)OCC,water,298,-0.677181175,mol/L
CC(=O)OCC(COC(C)=O)OC(C)=O,water,298,-0.575436704,mol/L
CC1(C)CO1,water,298,-0.094549434,mol/L
CCCCCCOC1O[C@H](CO)[C@@H](O)[C@H](O)[C@H]1O,water,298,-0.658698746,mol/L
OC(=O)CC(O)(CC(O)=O)C(O)=O,water,298,0.476843124,mol/L
[Cl-].[Cl-].[NH3+]CCCCCCCC[NH3+],water,298,0.422840017,mol/L
Nc1[nH]ncn1,water,298,0.832692995,mol/L
OCCN1C(=O)N(CCO)C(=O)N(CCO)C1=O,water,298,0.340366328,mol/L
[Na+].OC(=O)CC(O)(CC(O)=O)C([O-])=O,water,298,0.425248046,mol/L
CCOC(=O)CC#N,water,298,-0.290845476,mol/L
[Na+].[Na+].Nc1c2C(=O)c3ccccc3C(=O)c2c(Nc4ccc(NC(=O)C(Br)=C)cc4[S]([O-])(=O)=O)cc1[S]([O-])(=O)=O,water,298,-1.061803892,mol/L
[Na+].[Na+].NC(=O)CCN(CCO)c1nc(Nc2ccccc2)nc(Nc3ccc(\C=C\c4ccc(Nc5nc(Nc6ccccc6)nc(n5)N(CCO)CCC(N)=O)cc4[S]([O-])(=O)=O)c(c3)[S]([O-])(=O)=O)n1,water,298,-1.247560996,mol/L
[Li+].[Cl-],water,298,1.127807871,mol/L
OC1COC(O)C(O)C1O,water,298,0.577880851,mol/L
CC(C)(CO)C(O)C(=O)NCCCO,water,298,0.437676454,mol/L
OC(C(O)C(O)=O)C(O)=O,water,298,0.571847844,mol/L
O[P](O)(=O)CN(CCCCCCN(C[P](O)(O)=O)C[P](O)(O)=O)CCCCCCN(C[P](O)(O)=O)C[P](O)(O)=O,water,298,-0.087765578,mol/L
[K+].O[C@H]([C@@H](O)C([O-])=O)C(O)=O,water,298,0.473623794,mol/L
[Na+].[K+].O[C@H]([C@@H](O)C([O-])=O)C([O-])=O,water,298,0.4256421,mol/L
OC1CCCCC1,water,298,-0.247115593,mol/L
CSCCC(N)C(O)=O,water,298,-0.420996052,mol/L
COC(=O)CC(C(C)=O)C(=O)OC,water,298,-0.524834841,mol/L
N.N.N.N.[Pd++].OC([O-])=O.OC([O-])=O,water,298,-0.722399688,mol/L
NC(CO)(CO)CO,water,298,0.657089461,mol/L