Solute,Solvent,Temperature_K,Solubility,Units
CC(=C)C(=O)Oc1ccccc1,water,298,-2.494851361,mol/L
[Co++].CC([O-])=CC(C)=O.CC([O-])=CC(C)=O,water,298,-1.697530099,mol/L
CC1=C(C=O)C(C)(C)CC=C1,water,298,-2.465007757,mol/L
CN(C)Cc1cc(c(O)c(c1)C(C)(C)C)C(C)(C)C,water,298,-2.711387028,mol/L
CC(=O)CC(C)(C)C1CCCCC1,water,298,-3.548153643,mol/L
S=C1Nc2ccccc2S1,water,298,-3.515816723,mol/L
CC(C)[C@@H]1CC[C@@H](C)C[C@H]1O,water,298,-2.488009121,mol/L
CC(C)C1CCC(C)CC1O,water,298,-2.488009121,mol/L
[Co++].[O-][Mo]([O-])(=O)=O,water,298,-2.634320541,mol/L
C=COCCCCOC=C,water,298,-2.44960211,mol/L
Nc1ccc(Nc2ccccc2)cc1,water,298,-2.563130476,mol/L
CCC(C)C(=O)N(C)c1ccccc1,water,298,-1.580579513,mol/L
CO[Si](C)(OC)C=C,water,298,0.577623585,mol/L
[Na+].[Na+].[O-]C(=O)c1ccccc1C2=C3C=CC(=O)C=C3Oc4cc([O-])ccc24,water,298,0.12346464,mol/L
NC(=O)c1cccnc1,water,298,0.612158315,mol/L
CNc1ccc(O)cc1.CNc2ccc(O)cc2.O[S](O)(=O)=O,water,298,-0.838079267,mol/L
[Na+].[Na+].[Na+].[O-][S](=O)(=O)c1ccc2c(c1)C=C(C(=O)/C2=N/Nc3ccc(c4ccccc34)[S]([O-])(=O)=O)[S]([O-])(=O)=O,water,298,-1.082414087,mol/L
Cc1cc(C)cc(O)c1,water,298,-1.387983905,mol/L
CCCCOC(C)=O,water,298,-1.366086599,mol/L
Nc1ccc(Nc2ccccc2)cc1,water,298,-2.566418635,mol/L
CCC(COC(=O)C=C)(COC(=O)C=C)COC(=O)C=C,water,298,-2.772789495,mol/L
CC(C)CC(=O)CC(C)C,water,298,-2.454057846,mol/L
COc1ccc(CC=C)cc1OC,water,298,-2.55201324,mol/L
Nc1ccc2c(O)cc(cc2c1)[S](O)(=O)=O,water,298,-2.679885573,mol/L
[Al+3].[O-]c1ccc2cc(ccc2c1N=Nc3ccc(cc3)[S]([O-])(=O)=O)[S]([O-])(=O)=O,water,298,-2.936886553,mol/L
Clc1ccccc1,water,298,-2.352410222,mol/L
CCCCCCCCO,water,298,-2.415744371,mol/L
CCCOC(=O)c1ccc(O)cc1,water,298,-2.556792013,mol/L
CCCCCC1=C(CCC1CC(=O)OC)OC(C)=O,water,298,-3.721988672,mol/L
C=CC1CCC=CC1,water,298,-3.335193031,mol/L
COc1ccc(cc1O)[C@@H]2CC(=O)c3c(O)cc(O[C@@H]4O[C@H](CO[C@@H]5O[C@@H](C)[C@H](O)[C@@H](O)[C@H]5O)[C@@H](O)[C@H](O)[C@H]4O)cc3O2,water,298,-5.010485646,mol/L
CCCCCCCC/C=C/CCCCCCCCN(CCO)CCO,water,298,-4.78011829,mol/L
CCCCOC(=O)c1ccc(C(=O)OCCCC)c(c1)C(=O)OCCCC,water,298,-4.807173711,mol/L
[O--].[O--].[O--].[Bi+3].[Bi+3],water,298,-4.898451805,mol/L
CCC(C)N1N=CN(C1=O)c2ccc(cc2)N3CCN(CC3)c4ccc(O)cc4,water,298,-4.828521956,mol/L
CO[Si](CCCOC(=O)C=C)(OC)OC,water,298,-4.606388779,mol/L
CC(C)CCCCCCCCCCO,water,298,-4.538396035,mol/L
CC\C=C/CCOC(=O)C\C=C/CC,water,298,-4.537023319,mol/L
CCCCCCCCCCCO,water,298,-4.480440668,mol/L
CC(=C)[C@@H]1CCC(=CC1)C,water,298,-4.379185993,mol/L
C[C@]12CC[C@H]3[C@@H](CCC4=CC(=O)CC[C@H]34)[C@@H]1CC[C@@]2(O)C#C,water,298,-4.726648631,mol/L
[Ba++].[O-][B][O-],water,298,-2.340733519,mol/L
CC(c1ccccc1)c2ccccc2,water,298,-4.519554064,mol/L
CC(=C)C(=O)OC1CC2CCC1(C)C2(C)C,water,298,-4.611395262,mol/L
CC1(C)[C@H]2CC[C@]1(C)C(C2)OC(=O)C=C,water,298,-4.583092455,mol/L
O=C1C(c2ccc3ccccc3n2)C(=O)c4ccccc14,water,298,-4.701186127,mol/L
CCCCC(CC)COC(=O)OOC(C)(C)C,water,298,-4.659958513,mol/L
CO[Si](OC)(C1CCCC1)C2CCCC2,water,298,-4.632799679,mol/L
CC1CC(CC(C)(C)C1)OC(=O)C(C)=C,water,298,-4.598598509,mol/L
Oc1ccccc1C(=O)OC2CCCCC2,water,298,-4.618675539,mol/L
COc1ccc(cc1O)[C@@H]2CC(=O)c3c(O)cc(O[C@@H]4O[C@H](CO[C@@H]5O[C@@H](C)[C@H](O)[C@@H](O)[C@H]5O)[C@@H](O)[C@H](O)[C@H]4O)cc3O2,water,298,-5.064746161,mol/L
CC(c1ccccc1)c2ccccc2,water,298,-4.542203974,mol/L
CCCC=O.Nc1ccccc1,water,298,-4.50210133,mol/L
[Zn++].CCCCCCCCCCCC([O-])=O.CCCCCCCCCCCC([O-])=O,water,298,-4.950531484,mol/L
CCCCCCCCCCCCCCCCCC(O)=O.NCCNCCNCCNCCN,water,298,-4.960419449,mol/L
[Gd+3].[Gd+3].[O-]C(=O)C([O-])=O.[O-]C(=O)C([O-])=O.[O-]C(=O)C([O-])=O,water,298,-5.054773725,mol/L
CC/C=C/CCOC(=O)c1ccccc1O,water,298,-4.643981404,mol/L
[O-][N+](=O)N1CN(CN(CN(C1)[N+]([O-])=O)[N+]([O-])=O)[N+]([O-])=O,water,298,-4.772550531,mol/L
CC(C)(C)C1CCC(CC1)OC(=O)C=C,water,298,-4.623904374,mol/L
Clc1ccccc1,water,298,-2.354150883,mol/L
CC(C)[C@@H]1CC[C@@H](C)CC1=O,water,298,-2.491877231,mol/L
COC(=O)c1ccc(cc1[N+]([O-])=O)C(O)=O,water,298,-2.657001848,mol/L
CCCCCCCCO,water,298,-2.420109176,mol/L
Cc1cc(C)cc(C)c1,water,298,-3.382657059,mol/L
CC(=O)OC(C)(C)CCCC(=C)C=C,water,298,-3.597416499,mol/L
COC(=O)c1ccc(cc1)C(=O)OC,water,298,-3.595370997,mol/L
CC1C(C)(C)C2=C(C(=O)CCC2)C1(C)C,water,298,-3.623478781,mol/L
S(Sc1sc2ccccc2n1)c3sc4ccccc4n3,water,298,-3.83159557,mol/L
Cc1ccc(cc1Cl)[N+]([O-])=O,water,298,-3.544278177,mol/L
[Cl-].CCCCCCCCCCCCCCCCCC[N+](C)(C)C,water,298,-3.851456788,mol/L
Cc1cc(C)cc(O)c1,water,298,-1.398534087,mol/L
Clc1ccccc1,water,298,-2.362960404,mol/L
CC(C)(c1ccc(O)cc1)c2ccc(O)cc2.OC(=O)C=C.ClCC3CO3,water,298,-2.909413454,mol/L
CCCN(CCC)CCC,water,298,-2.472220255,mol/L
N,water,298,1.451806889,mol/L
Cc1ccc(O)c(C)c1.Cc2ccc(C)c(O)c2.Cc3cc(C)cc(O)c3.Cc4ccc(O)cc4C.Cc5cccc(O)c5C.Cc6cccc(C)c6O,water,298,-2.183863922,mol/L
Cc1cccc(C)c1O,water,298,-1.405712672,mol/L
O=C1CCCCCN1C(=O)NCCCCCCNC(=O)N2CCCCCC2=O,water,298,-3.906400656,mol/L
Cc1cc(C)cc(C)c1,water,298,-3.396839364,mol/L
CC(C)CCOC(=O)CC(C)C,water,298,-3.554059535,mol/L
CCCCCC(CO)CCC,water,298,-3.518198523,mol/L
Nc1ccc(CCc2ccc(N)cc2)cc1,water,298,-3.645700574,mol/L
COC(=O)c1cccnc1,water,298,-0.459550859,mol/L
Cc1ccc(O)cc1C,water,298,-1.409346957,mol/L
NC(Nc1ccccc1)=Nc2ccccc2,water,298,-2.648140111,mol/L
[Ca++].O[C@H]([C@@H](O)C(O)=O)C(O)=O,water,298,-2.602434694,mol/L
OB(O)O,water,298,-0.117278319,mol/L
[Ca++].[Ca++].[Ca++].[O-]B([O-])[O-].[O-]B([O-])[O-],water,298,-0.702364809,mol/L
[K].OB(O)O,water,298,-0.330082578,mol/L
Cc1ccc(O)c(C)c1.Cc2ccc(C)c(O)c2.Cc3cc(C)cc(O)c3.Cc4ccc(O)cc4C.Cc5cccc(O)c5C.Cc6cccc(C)c6O,water,298,-2.193007302,mol/L
Cc1cccc(C)c1O,water,298,-1.414856051,mol/L
CCC(C)C,water,298,-3.178814458,mol/L
CC(C)(C)c1ccc(cc1)C(O)=O,water,298,-3.577962337,mol/L
Cc1ccccc1Cl,water,298,-3.430287819,mol/L
[Cl-].[Cu+],water,298,-3.32353295,mol/L
[Ni++].[O-][Mo++]([O-])([O-])[O-],water,298,-1.672068062,mol/L
Nc1cccc2ccc(cc12)[S](O)(=O)=O,water,298,-1.682279323,mol/L
FC(F)C(F)(F)F,water,298,-1.416495791,mol/L
Cc1cccc(O)c1C,water,298,-1.424196078,mol/L
Cc1ccc(O)c(C)c1.Cc2ccc(C)c(O)c2.Cc3cc(C)cc(O)c3.Cc4ccc(O)cc4C.Cc5cccc(O)c5C.Cc6cccc(C)c6O,water,298,-2.202347328,mol/L
Oc1c(I)cc(Cl)c2cccnc12,water,298,-1.822256226,mol/L
Cc1cccc(C)c1O,water,298,-1.424196078,mol/L
C1CCc2ccccc2C1,water,298,-3.454733185,mol/L
CCCCC(CC)C(=O)OOC(C)(C)C,water,298,-3.669517691,mol/L
CC1C(CC2CC1C2(C)C)C=O,water,298,-3.558040393,mol/L
Cc1cccc(O)c1C,water,298,-1.427037709,mol/L
CC(C)(O)CCc1ccccc1,water,298,-1.555639677,mol/L
COC,water,298,-0.004443943,mol/L
CC(C)[C@@H]1CC[C@@H](C)C[C@H]1O,water,298,-2.53490799,mol/L
[Na+].[Na+].[O-]C(=O)CCC([O-])=O,water,298,0.449081811,mol/L
CC(=O)Oc1ccc(cc1)[N+]([O-])=O,water,298,-2.599256825,mol/L
CC(C)COC(=O)c1cc(N)c(Cl)c(N)c1,water,298,-2.727546625,mol/L
CC(=O)c1oc2ccccc2c1,water,298,-2.548488397,mol/L
CC[N+](CC)(CC(=O)Nc1c(C)cccc1C)Cc2ccccc2.[O-]C(=O)c3ccccc3,water,298,-0.996697453,mol/L
[Cl-].[NH3+]c1cc(cc(Cl)c1O)[N+]([O-])=O,water,298,-2.699029836,mol/L
CCC(O)COC1CCCCC1C(C)(C)C,water,298,-3.698734262,mol/L
Clc1ccc(Cl)c(Cl)c1,water,298,-3.602656377,mol/L
Nc1nc(N)nc(Nc2nc(N)nc(N)n2)n1,water,298,-3.715366812,mol/L
C1CCc2ccccc2C1,water,298,-3.468038652,mol/L
O=C1CCCCCCCCCCC1,water,298,-3.607590831,mol/L
Nc1cccc(c1)C(F)(F)F,water,298,-1.559000847,mol/L
N,water,298,1.416142821,mol/L
CC(C)COC(=O)c1cc(N)c(Cl)c(N)c1,water,298,-2.737208748,mol/L
CCCN(CCC)CCC,water,298,-2.508784416,mol/L
CC(C)C1CCC(C)CC1OO,water,298,-2.588821642,mol/L
OC(O)C(Cl)(Cl)Cl,water,298,0.428541789,mol/L
CC(C)COC(=O)c1cc(N)c(Cl)c(N)c1,water,298,-2.738284824,mol/L
OC1(CCCCC1)C(=O)c2ccccc2,water,298,-2.664780194,mol/L
[O-][N+](=O)c1ccccc1Cl,water,298,-2.552996357,mol/L
[H+].[H+].[Cl-].[Cl-].NNCc1ccccc1,water,298,-1.646789011,mol/L
FCF,water,298,-1.072742717,mol/L
CCOc1nc2cccc(C(O)=O)c2n1Cc3ccc(cc3)c4ccccc4c5n[nH]nn5,water,298,-6.497781397,mol/L
[O-][N+](=O)c1ccccc1Cl,water,298,-2.55398227,mol/L
Clc1nc(Cl)nc(Cl)n1,water,298,-2.622338856,mol/L
COc1cc(c(O)c(c1)C(C)(C)C)c2cc(OC)cc(c2O)C(C)(C)C,water,298,-6.776311258,mol/L
C[C@]1(Cn2ccnn2)[C@@H](N3[C@@H](CC3=O)[S]1(=O)=O)C(O)=O,water,298,-1.838461676,mol/L
CC(C)COC(=O)c1cc(N)c(Cl)c(N)c1,water,298,-2.746092353,mol/L
CCCCCC(=O)OCC=C,water,298,-2.557262637,mol/L
CN(C=O)c1ccccc1,water,298,-1.494780947,mol/L
O=C1N[S](=O)(=O)c2ccccc12,water,298,-1.629428566,mol/L
s1cnc2ccccc12,water,298,-1.497479325,mol/L
Nc1ccc(cc1[S](O)(=O)=O)[S](O)(=O)=O,water,298,-1.770093003,mol/L
OCC=C,water,298,-1.130558152,mol/L
CC(C)[C@@H]1CC[C@@H](C)C[C@@H]1O,water,298,-2.560404377,mol/L
COc1ccc(cc1[N+]([O-])=O)C(O)=O,water,298,-2.661319514,mol/L
CC12CCC3C(CCC4=CC(=O)C=CC34C)C1CCC2=O,water,298,-2.820459609,mol/L
CC(C)(C)C(=O)OCCc1ccccc1,water,298,-3.67528009,mol/L
CC(OC(C)=O)C1CCCCC1,water,298,-3.597623767,mol/L
CC(=O)CCC1=C(C)CCCC1(C)C,water,298,-3.655044576,mol/L
CC(C)CCCC=C,water,298,-3.416586328,mol/L
Nc1cccc(N)c1,water,298,0.598454863,mol/L
[Br-].CC[P+](c1ccccc1)(c2ccccc2)c3ccccc3,water,298,-0.937218529,mol/L
COC(=O)c1ccccc1C(=O)OC,water,298,-1.655760624,mol/L
OC(=O)CCl,water,298,1.653991578,mol/L
CC[N+](CC)(CC(=O)Nc1c(C)cccc1C)Cc2ccccc2.[O-]C(=O)c3ccccc3,water,298,-1.020958606,mol/L
NC(CO)C(O)=O,water,298,0.60681514,mol/L
COC(=O)c1ccc(C)cc1,water,298,-2.548214494,mol/L
CCCCCCO,water,298,-1.382910122,mol/L
O=C1NSc2ccccc12,water,298,-1.554210616,mol/L
[Na+].[O-][N+](=O)c1cccc(c1)[S]([O-])(=O)=O,water,298,-1.729236163,mol/L
ClCC(Cl)C=C,water,298,-2.473653774,mol/L
CC(C)C1CCC(C)CC1O,water,298,-2.570623543,mol/L
CC(C)[C@@H]1CC[C@@H](C)C[C@H]1O,water,298,-2.570623543,mol/L
C1CCc2ccccc2C1,water,298,-3.490823291,mol/L
CCC(C)c1ccccc1,water,298,-3.499434776,mol/L
CC/C(C)=C/CC/C(C)=C/C#N,water,298,-3.589641142,mol/L
CCCCCCC1(C)CCC(=O)O1,water,298,-2.643261824,mol/L
COC(C)(C)C,water,298,-0.323526854,mol/L
[H+].[Mn++].Cc1cc(c(cc1Cl)N=Nc2c([O-])c(cc3ccccc23)C([O-])=O)[S]([O-])(=O)=O,water,298,-4.0627672,mol/L
[Ca++].O[C@H]([C@@H](O)C(O)=O)C(O)=O,water,298,-2.664231088,mol/L
[Na+].Nc1ccc(cc1[S]([O-])(=O)=O)[N+]([O-])=O,water,298,-1.767738518,mol/L
CC(C)[C@@H]1CC[C@@H](C)C[C@H]1O,water,298,-2.581088976,mol/L
C[C@H]1CCC2(O)C(C)(C)C3CC[C@@]2(C)C1C3,water,298,-3.72590382,mol/L
CCc1ccccc1.CCc2cc(CC)c(CC)cc2CC.CCC(C)(c3ccccc3)c4ccccc4.Cc5ccccc5.Cc6ccccc6c7ccccc7.Cc8cccc9ccccc89.C=Cc%10ccccc%10.C%11CCC(CC%11)c%12ccccc%12.C(Cc%13ccccc%13)c%14ccccc%14.c%15ccccc%15.c%16ccc(cc%16)c%17ccccc%17,water,298,-4.588176842,mol/L
CO\N=C(C(=O)OC)/c1ccccc1COc2ccccc2C,water,298,-3.536992465,mol/L
CCCCCCCCCCN(C)C,water,298,-3.655220449,mol/L
Clc1cccc(n1)C(Cl)(Cl)Cl,water,298,-3.761380869,mol/L
CCC(C)(O)CCCC(C)C,water,298,-2.591984737,mol/L
C(NCc1ccccc1)c2ccccc2,water,298,-2.687630237,mol/L
Cc1cccc2n[nH]nc12,water,298,-1.516963539,mol/L
Nc1cc(cc(c1O)[S](O)(=O)=O)[N+]([O-])=O,water,298,-1.766205568,mol/L
[Na+].[Na+].[Na+].[Na+].OCCN(CCO)c1nc(Nc2ccc(cc2)[S]([O-])(=O)=O)nc(Nc3ccc(\C=C\c4ccc(Nc5nc(Nc6ccc(cc6)[S]([O-])(=O)=O)nc(n5)N(CCO)CCO)c(c4)[S]([O-])(=O)=O)cc3[S]([O-])(=O)=O)n1,water,298,-0.46428681,mol/L
[Na+].[Na+].[O-]C(=O)c1ccccc1C2=C3C=CC(=O)C=C3Oc4cc([O-])ccc24,water,298,-0.973445373,mol/L
[H+].[Cl-].CC1=CC(C=CC1=N)=C(c2ccc(N)cc2)c3ccc(N)cc3,water,298,-1.926669074,mol/L
COC(=O)c1ccccc1C(=O)OC,water,298,-1.686157925,mol/L
[Cl-].CN(C)c1ccc(cc1)[C+](c2ccc(cc2)N(C)C)c3ccc(cc3)N(C)C,water,298,-2.008588463,mol/L
CCCCCC1CCCC(=O)O1,water,298,-1.629032231,mol/L
CCOC(=O)CC(=O)C(F)(F)F,water,298,-1.663024463,mol/L
[O-][N+](=O)OCCOCCO[N+]([O-])=O,water,298,-1.690450821,mol/L
Clc1c(Cl)c(Cl)c2C(=O)OC(=O)c2c1Cl,water,298,-1.854149607,mol/L
CC(=O)/C=C/C1C(=CCCC1(C)C)C,water,298,-2.68192381,mol/L
OC(=O)CN(CCN(CC(O)=O)CC(O)=O)CC(O)=O,water,298,-2.863685612,mol/L
CC(CC=O)CC(C)(C)C,water,298,-2.550967859,mol/L
Nc1ccc2c(O)cc(cc2c1)[S](O)(=O)=O,water,298,-2.776795586,mol/L
[Ca++].CCCCCCC(O)CCCCCCCCCCC([O-])=O.CCCCCCC(O)CCCCCCCCCCC([O-])=O,water,298,-3.203459897,mol/L
O[Si](O)(c1ccccc1)c2ccccc2,water,298,-2.733020622,mol/L
CCCCCOC(=O)CCCC,water,298,-3.624481304,mol/L
CC1=CC(=O)N(Cc2cccc(CN3C(=O)C=C(C)C3=O)c2)C1=O,water,298,-3.900334993,mol/L
[Ni++].[O-]C(=O)C([O-])=O,water,298,-3.556228502,mol/L
CC1=CC(=O)N(Cc2cccc(CN3C(=O)C=C(C)C3=O)c2)C1=O,water,298,-3.901400747,mol/L
[Ni++].[O-]C(=O)C([O-])=O,water,298,-3.558364731,mol/L
[Ca++].CCCCCCC(O)CCCCCCCCCCC([O-])=O.CCCCCCC(O)CCCCCCCCCCC([O-])=O,water,298,-4.199138523,mol/L
CC\C=C/CCOC(=O)c1ccccc1,water,298,-3.704897417,mol/L
CNC(=S)NN,water,298,-3.417649303,mol/L
Clc1cccc(n1)C(Cl)(Cl)Cl,water,298,-3.760296488,mol/L
COC(=O)c1ccc(c(N)c1)C(=O)OC,water,298,-3.718503765,mol/L
Cc1ccc(Cl)cc1,water,298,-3.500325686,mol/L
CCCC(CC)CCCCCCCN,water,298,-3.697625957,mol/L
OC1CCCCCCCCCCC1,water,298,-3.663519539,mol/L
OC(=O)CCCCCCCCCCC(O)=O,water,298,-3.76024149,mol/L
COc1ccc(cc1O)[C@@H]2CC(=O)c3c(O)cc(O[C@@H]4O[C@H](CO[C@@H]5O[C@@H](C)[C@H](O)[C@@H](O)[C@H]5O)[C@@H](O)[C@H](O)[C@H]4O)cc3O2,water,298,-5.091126706,mol/L
CC1(C)CCC2OC23C(C)(C)C4CCC13C4,water,298,-4.6529288,mol/L
CC(=O)CC(c1ccccc1)C2=C(O)Oc3ccccc3C2=O,water,298,-4.798823929,mol/L
CCCCCCCCCl,water,298,-4.48293493,mol/L
O=[Co],water,298,-4.186247502,mol/L
CC(O)CSCCCCCCCCC(C)(C)C,water,298,-4.730940692,mol/L
CCCCCCCCCCCC(O)=O,water,298,-4.619583571,mol/L
CCCCc1nc(Cl)c(CO)n1Cc2ccc(cc2)c3ccccc3c4n[nH]nn4,water,298,-4.945016986,mol/L
[O--].[O--].[O--].[Lu+3].[Lu+3],water,298,-4.918566536,mol/L
CCCCC(CC)COC(=O)CS,water,298,-4.635481621,mol/L
CC(C)(C)c1cccc(c1O)C(C)(C)C,water,298,-4.643387431,mol/L
CCC(C)(C)c1ccccc1,water,298,-4.50074592,mol/L
CC(CCC=O)C1C(=CCCC1(C)C)C,water,298,-4.653202091,mol/L
CC(c1ccccc1)c2ccccc2,water,298,-4.596063687,mol/L
CC1(C)C2CCC(C2)C1=C,water,298,-4.471540428,mol/L
CC(CC1CCCC1=O)C2CCC(=CC2)C,water,298,-4.680367049,mol/L
CC\C=C/CCOC(=O)C\C=C/CC,water,298,-4.630140343,mol/L
CCCCOC(=O)CC(CC(=O)OCCCC)(OC(C)=O)C(=O)OCCCC,water,298,-4.95250228,mol/L
CCCCCCCCCC(=O)OC,water,298,-4.626748523,mol/L
[Pr+3].[Pr+3].[O-]C([O-])=O.[O-]C([O-])=O.[O-]C([O-])=O,water,298,-5.022027024,mol/L
CCCCN(CCCC)C(=O)N(CCCC)CCCC,water,298,-4.820595497,mol/L
CO[C@]1(C)CCC23C[C@@H]1C(C)(C)[C@@H]2CC[C@H]3C,water,298,-4.74017718,mol/L
CC1(C)C2CCC(C2)C1=C,water,298,-4.511048969,mol/L
CC(C)(c1cc(Br)c(O)c(Br)c1)c2cc(Br)c(O)c(Br)c2,water,298,-5.116405766,mol/L
COc1ccc(cc1O)[C@@H]2CC(=O)c3c(O)cc(O[C@@H]4O[C@H](CO[C@@H]5O[C@@H](C)[C@H](O)[C@@H](O)[C@H]5O)[C@@H](O)[C@H](O)[C@H]4O)cc3O2,water,298,-5.167683809,mol/L
CC(C)(C)c1cccc(c1O)C(C)(C)C,water,298,-4.700718451,mol/L
COC1CCCCCCCCCCC1,water,298,-4.683590383,mol/L
CCOC1(C)CCC2C(=C)C1CCC2(C)C,water,298,-4.734296245,mol/L
CCN(CC)C(=S)SSC(=S)N(CC)CC,water,298,-4.860377549,mol/L
Cc1ccc(N2C(=O)c3cccc4c(N)ccc(C2=O)c34)c(C)c1,water,298,-4.891655533,mol/L
Cc1cc(cc(C)c1CC#N)C(C)(C)C,water,298,-4.70181183,mol/L
CC(C)(c1ccccc1)c2ccc(O[P@]3OC[C@]4(CO3)CO[P@](OC4)Oc5ccc(cc5C(C)(C)c6ccccc6)C(C)(C)c7ccccc7)c(c2)C(C)(C)c8ccccc8,water,298,-7.231973426,mol/L
O=C1NC(=O)c2cccc3cccc1c23,water,298,-4.692831503,mol/L
CCCC[Sn](=O)CCCC,water,298,-4.794038183,mol/L
CCCC[Sn++]CCCC.CCCCC(CC)C([O-])=O.CCCCC(CC)C([O-])=O,water,298,-5.113404326,mol/L
CCCCCCCCCCCCO,water,298,-4.668243769,mol/L
O=C1CCC2CCCCC2O1,water,298,-0.586560326,mol/L
NC(CO)C(O)=O,water,298,-0.421690718,mol/L
COC(=O)c1ccc(C)cc1,water,298,-2.576720352,mol/L
CC1CC(C)(C)OC(Cc2ccccc2)O1,water,298,-2.744685443,mol/L
N#Cc1ccccc1C#N,water,298,-2.511067288,mol/L
Nc1ccccc1N,water,298,-0.439609879,mol/L
CCN(CC)CC,water,298,-0.410757921,mol/L
Cc1cccc(O)c1C,water,298,-1.492561359,mol/L
O=C1N[S](=O)(=O)c2ccccc12,water,298,-1.671832414,mol/L
Nc1ccc(Cl)cc1,water,298,-1.514697566,mol/L
[O-][N+](=O)OCCOCCO[N+]([O-])=O,water,298,-1.701446205,mol/L
[Na+].Cc1cc(ccc1N)[S]([O-])(=O)=O,water,298,-1.729501225,mol/L
[O-][N+](=O)c1cccc(Cl)c1,water,298,-2.60637034,mol/L
CC(C)CCCC(C)CC#N,water,298,-3.587759138,mol/L
[Ca++].[O-][Mo]([O-])(=O)=O,water,298,-3.703694345,mol/L
O=C1CCCCCN1C(=O)c2cccc(c2)C(=O)N3CCCCCC3=O,water,298,-3.958346195,mol/L
CC(C)=CCC\C(C)=C\CCC(C)=O,water,298,-3.697448425,mol/L
FC(F)C(F)(F)F,water,298,-1.489304021,mol/L
CC(C)C1(O)CCC(=CC1)C,water,298,-2.60097177,mol/L
CCCCN(CCCC)CCCC,water,298,-2.681417001,mol/L
Brc1ccccc1,water,298,-2.611596089,mol/L
CCCCCC(=O)OCC=C,water,298,-2.610551759,mol/L
CC(=O)Nc1ccc(cc1)[S](Cl)(=O)=O,water,298,-1.788830513,mol/L
[Na+].Nc1cc(cc(c1[O-])[N+]([O-])=O)[N+]([O-])=O,water,298,-1.764813003,mol/L
Fc1ccc(cc1)C(=O)CCCCl,water,298,-2.722633923,mol/L
CCCCC,water,298,-3.272781625,mol/L
OC(=O)CCCCCCCCC=C,water,298,-3.680466567,mol/L
O=C(OCCOCCOC(=O)c1ccccc1)c2ccccc2,water,298,-3.91306428,mol/L
O=C(OCCOCCOC(=O)c1ccccc1)c2ccccc2,water,298,-3.91419673,mol/L
CC(C)[Si](OC(=O)C=C)(C(C)C)C(C)C,water,298,-4.943737963,mol/L
OC(=O)c1ccc(cc1)[N+]([O-])=O,water,298,-2.644389217,mol/L
CC(C)OC(=O)CCC(=O)OC(C)C,water,298,-1.729316846,mol/L
COC(=O)c1ccc(C)cc1,water,298,-2.603151602,mol/L
[Sr++].Cc1ccc(N\N=C\2C(=O)C(=Cc3ccccc23)C([O-])=O)c(c1)[S]([O-])(=O)=O,water,298,-4.105730153,mol/L
[Cl-].C[N+](C)(C)c1ccc2ccc(O)c(N=Nc3ccc(N)cc3)c2c1,water,298,-1.980785388,mol/L
CCCCCCCC(C)=O,water,298,-2.583653941,mol/L
NC(=O)C(F)(F)F,water,298,-1.485022741,mol/L
CCC(C)(C)C1CCC(=O)CC1,water,298,-2.656892778,mol/L
O=C1NC(=O)c2ccccc12,water,298,-2.599508366,mol/L
Cc1ccc(cc1[N+]([O-])=O)[S](C)(=O)=O,water,298,-2.764701082,mol/L
Clc1ccc(Cl)c(Cl)c1,water,298,-3.681262779,mol/L
O=C(OCCOCCOC(=O)c1ccccc1)c2ccccc2,water,298,-3.921054154,mol/L
CCCCCCC#CC(=O)OC,water,298,-3.651887666,mol/L
CCCCCCCCCCO,water,298,-3.631238037,mol/L
CCCCCCCCCCCCN(C)C,water,298,-3.761011007,mol/L
C.O[S](O)(=O)=O,water,298,-3.48916765,mol/L
O=[P](c1ccccc1)(c2ccccc2)c3ccccc3,water,298,-2.877472795,mol/L
COc1ccc(OC)c(Cl)c1,water,298,-2.672402404,mol/L
O=[Si]=O,water,298,-3.222456337,mol/L
OC(=O)Cc1ccc(Cl)cc1Cl,water,298,-2.749545729,mol/L
CCCCOC=C,water,298,-2.439597268,mol/L
OCCOc1ccc2ccccc2c1,water,298,-2.71429469,mol/L
O=C1NSc2ccccc12,water,298,-1.619855789,mol/L
OCc1cccc(Oc2ccccc2)c1,water,298,-2.742499971,mol/L
Clc1c(Cl)c(Cl)c2C(=O)OC(=O)c2c1Cl,water,298,-1.899907097,mol/L
CCCCOC(=O)C(C)=C,water,298,-2.596590987,mol/L
CCCCN[S](=O)(=O)c1ccccc1,water,298,-3.764802467,mol/L
CCCCOc1ccccc1,water,298,-3.613249563,mol/L
O=C(OCCOCCOC(=O)c1ccccc1)c2ccccc2,water,298,-3.937488879,mol/L
O=C(OCCOCCOC(=O)c1ccccc1)c2ccccc2,water,298,-3.938686934,mol/L
CCCCCCCC\C=C/CCCCCCCCNCCCN,water,298,-3.955042001,mol/L
Clc1ccc(Cl)c(Cl)c1,water,298,-3.702452078,mol/L
O=C1NC(=O)c2ccccc12,water,298,-3.611407589,mol/L
O=C(OCCOCCOC(=O)c1ccccc1)c2ccccc2,water,298,-3.941093003,mol/L
OC(=O)c1cccc(c1)[N+]([O-])=O,water,298,-1.6691454,mol/L
OC(=O)c1cccc(c1)[N+]([O-])=O,water,298,-1.669630917,mol/L
Cc1c(CO)nccc1OCC(F)(F)F,water,298,-1.792073711,mol/L
COC,water,298,0.88436592,mol/L
COc1cc(\C=C\C(O)=O)cc(OC)c1OC,water,298,-2.830470194,mol/L
[Ba++].[O-]P=O.[O-]P=O,water,298,0.123663372,mol/L
[Na+].[Na+].[O-]C(=O)CCC([O-])=O,water,298,0.334413649,mol/L
CC(=C)C1CCC(=CC1)C.CC2=CCC3CC2C3(C)C.CC45CCC(CC4)C(C)(C)O5,water,298,-2.086084114,mol/L
Nc1ccccc1C(O)=O,water,298,-1.593089767,mol/L
CCCCC(=O)OC,water,298,-1.520988559,mol/L
BrCCCCBr,water,298,-2.790216782,mol/L
CC(C)(N=NC(C)(C)C#N)C#N,water,298,-2.671336846,mol/L
C1CCc2ccccc2C1,water,298,-3.567368139,mol/L
O=C(OCCOCCOC(=O)c1ccccc1)c2ccccc2,water,298,-3.952088388,mol/L
CCCCOC(=O)CCCCC(=O)OCCCC,water,298,-3.86815387,mol/L
CCO[P](=O)(C(=O)c1c(C)cc(C)cc1C)c2ccccc2,water,298,-3.956081947,mol/L
Cc1ccc(c(O)c1)C(C)(C)C,water,298,-2.672674663,mol/L
COC(=O)c1ccc(C(=O)OC)c(c1)[N+]([O-])=O,water,298,-2.835904882,mol/L
[Co++].CC([O-])=O.CC([O-])=O,water,298,0.29360437,mol/L
C=CC(=O)OCCCCCCOC(=O)C=C,water,298,-2.819336696,mol/L
O=C1N[S](=O)(=O)c2ccccc12,water,298,-1.731418104,mol/L
CCCCCCCCCC(=O)N(C)C,water,298,-2.76811118,mol/L
C=Cc1ccccc1,water,298,-2.486188697,mol/L
CC(=O)OC\C=C(C)/CCC=C(C)C,water,298,-3.751818407,mol/L
O=C(OCCOCCOC(=O)c1ccccc1)c2ccccc2,water,298,-3.962101384,mol/L
Nc1ccc(cc1)N=Nc2ccccc2,water,298,-3.759703076,mol/L
CC(C)CC=C,water,298,-3.392361668,mol/L
C,water,298,-0.67482974,mol/L
Clc1nc(Cl)nc(Cl)n1,water,298,-2.736874833,mol/L
CC1=CCC(CC#N)C1(C)C,water,298,-2.647537233,mol/L
OCCN(CCO)c1ccccc1,water,298,-0.734495605,mol/L
Cc1ccc(O)c(c1)C(C)(C)C,water,298,-2.691753623,mol/L
[Cl-].C[N+](C)(C)c1ccccc1,water,298,0.287747297,mol/L