Solute,Solvent,Temperature_K,Solubility,Units
Clc1ccccc1Cl,water,298,-3.177212386,mol/L
Clc1ccccc1Cl,water,298,-3.180557418,mol/L
[Br-].CCCCCCCCCCCCCCCCCC[N+](C)(C)C,water,298,-3.616127121,mol/L
O=C1Nc2cccc3cccc1c23,water,298,-3.254767098,mol/L
Clc1ccc(C=O)cc1,water,298,-2.177077944,mol/L
C[Si](C)(C)N[Si](C)(C)C,water,298,-2.244107631,mol/L
Clc1ccccc1Cl,water,298,-3.202127451,mol/L
[Zn++].CC(c1ccccc1)c2cc(C(C)c3ccccc3)c(O)c(c2)C([O-])=O.CC(c4ccccc4)c5cc(C(C)c6ccccc6)c(O)c(c5)C([O-])=O,water,298,-3.924409095,mol/L
C1OC1CN(CC2CO2)c3ccc(Cc4ccc(cc4)N(CC5CO5)CC6CO6)cc3,water,298,-4.662064583,mol/L
Cc1cccc(C=C)c1,water,298,-3.123150304,mol/L
CCC1CCC(CCC(O)=O)C1,water,298,-3.286116314,mol/L
CC12CC(O)C3C(CCC4=CC(=O)C=CC34C)C1CC(O)C2(O)C(=O)CO,water,298,-2.664548539,mol/L
CC(C)=CCC\C(C)=C/CO,water,298,-2.280134812,mol/L
Fc1ccc(cc1)C(=O)c2ccc(F)cc2,water,298,-4.396652185,mol/L
O=C(OCCCOCCCOC(=O)c1ccccc1)c2ccccc2,water,298,-4.595502564,mol/L
CC(C)(C)C1CCC(CC1)OC(=O)C=C,water,298,-3.428004722,mol/L
CN(C)c1ccc(C=O)cc1,water,298,-2.28276885,mol/L
CC(=O)OC(C)(C)Cc1ccccc1,water,298,-2.394649969,mol/L
Cc1ccc(O)c(C)c1.Cc2ccc(C)c(O)c2.Cc3cc(C)cc(O)c3.Cc4ccc(O)cc4C.Cc5cccc(O)c5C.Cc6cccc(C)c6O,water,298,-1.980309796,mol/L
Cc1cccc(C)c1O,water,298,-1.202158545,mol/L
CC(C)(C)c1ccc(OCC2CO2)cc1,water,298,-3.43023888,mol/L
COCCCCC(=O)c1ccc(cc1)C(F)(F)F,water,298,-3.544059701,mol/L
CC(C)=CCC\C(C)=C/CO,water,298,-2.320601166,mol/L
CC(Oc1ccc(Cl)cc1C)C(O)=O,water,298,-2.466030786,mol/L
[Zn++].CCCCC(CC)CO[P]([S-])(=S)OCC(C)C.CCCCC(CC)CO[P]([S-])(=S)OCC(C)C,water,298,-2.958195047,mol/L
FC(F)(F)c1cccc(Cl)c1,water,298,-3.411513885,mol/L
CCC(C)(CCC(C)C)C(=O)OCC1CO1,water,298,-3.513468741,mol/L
CC(C)CCCCCOC(=O)CCS,water,298,-4.4543817,mol/L
CC(C)=C1CCC(=CC1)C,water,298,-4.287342935,mol/L
[Na+].[Al+3].[O-][Si]([O-])=O.[O-][Si]([O-])=O,water,298,-3.473139052,mol/L
[Zn++].CC(=C)C([O-])=O,water,298,-2.363208098,mol/L
CCNCC(O)c1cccc(O)c1,water,298,-3.45410264,mol/L
[Zn++].CCC(C)O[P]([S-])(=S)OC(C)CC(C)C.CCC(C)O[P]([S-])(=S)OC(C)CC(C)C,water,298,-2.990876868,mol/L
ClCc1ccc(Cl)cc1Cl,water,298,-3.512942193,mol/L
CO[Si](OC)(C1CCCC1)C2CCCC2,water,298,-3.580560061,mol/L
CC1(C)C2CCC(=C)C1C2,water,298,-4.292313455,mol/L
O=C1CCCCCCCCCCCC(=O)OCCO1,water,298,-4.612412959,mol/L
CCCCCCCC\C=C/CCCCCCCC(O)=O.NCCNCCO,water,298,-4.809134189,mol/L
CCCCCCCCCCCCOC(=O)C(C)O,water,298,-4.63414462,mol/L
CCCCCCCC\C=C/CCCCCCCC(O)=O.NCCNCCN,water,298,-4.808027445,mol/L
CCCC(C)C.CCCC(C)CC.CCC(C)CC.CCC(C)C(C)C,water,298,-3.800584282,mol/L
CCCCC,water,298,-3.087390343,mol/L
CC\C=C\C,water,298,-3.07508279,mol/L
CCCCCC1C(CCC1=O)CC(=O)OC,water,298,-2.595803366,mol/L
NO,water,298,-0.763033718,mol/L
CCCCCC1C(CCC1=O)CC(=O)OC,water,298,-2.605752397,mol/L
C=CC(=O)OCCOc1ccccc1,water,298,-2.563625713,mol/L
CCCC[N+](CCCC)(CCCC)Cc1ccccc1.Oc2ccc(c3ccccc23)[S]([O-])(=O)=O,water,298,-2.641819273,mol/L
OC(=O)CCCCCCCCC=C,water,298,-3.552826145,mol/L
C[N+](C)(CCCN[S](=O)(=O)CCC(F)(F)C(F)(F)C(F)(F)C(F)(F)C(F)(F)C(F)(F)F)CC([O-])=O,water,298,-4.057185148,mol/L
CCC(Cc1ccccc1)(N(C)C)C(=O)c2ccc(cc2)N3CCOCC3,water,298,-4.793227892,mol/L
CC(C)(c1ccc(OCC2CO2)cc1)c3ccc(OCC4CO4)cc3,water,298,-4.76337569,mol/L
CC(C)CCCCCCc1ccc(O)cc1,water,298,-4.587250025,mol/L
CC(=C)c1cccc(c1)C(C)=C,water,298,-4.451139225,mol/L
[Mo],water,298,-4.203848464,mol/L
CC(C)(C)CCCCCC(=O)OC=C,water,298,-4.581332511,mol/L
CC(C)=CCCC(=C)C=C,water,298,-4.430147743,mol/L
Cc1ccc(cc1)C(C)(C)C,water,298,-4.472021768,mol/L
CC(CC1=CC(=CC(=O)N1O)C)CC(C)(C)C.NCCO,water,298,-2.798144504,mol/L
CC(CC1=CC(=CC(=O)N1O)C)CC(C)(C)C.NCCO,water,298,-2.799976972,mol/L
OC(=O)C1CCCCC1,water,298,-1.445031941,mol/L
[Na+].[Na+].[Na+].[Na+].[Na+].[O-][S](=O)(=O)OCC[S](=O)(=O)c1cccc(Nc2nc(Cl)nc(Nc3cc(cc4C=C(\C(=N/Nc5ccc6c(cccc6[S]([O-])(=O)=O)c5[S]([O-])(=O)=O)C(=O)c34)[S]([O-])(=O)=O)[S]([O-])(=O)=O)n2)c1,water,298,-0.410897736,mol/L
C(CCCN=C\C=C\c1ccccc1)CCN=C/C=C/c2ccccc2,water,298,-3.893739071,mol/L
CC(C)(C)CC(C)(C)c1cc(Cc2cc(cc(n3nc4ccccc4n3)c2O)C(C)(C)CC(C)(C)C)c(O)c(c1)n5nc6ccccc6n5,water,298,-6.704870223,mol/L
CC(C)(C)CC(C)(C)c1cc(Cc2cc(cc(n3nc4ccccc4n3)c2O)C(C)(C)CC(C)(C)C)c(O)c(c1)n5nc6ccccc6n5,water,298,-7.973715535,mol/L
CC(C)=C1CCC(=CC1)C,water,298,-4.476286863,mol/L
Cc1ccc(cc1)C(C)(C)C,water,298,-4.568931781,mol/L
[Cl-].CCN(CC[N+](C)(C)C)c1ccc(cc1)N=Nc2ccc(cc2Cl)[N+]([O-])=O,water,298,-3.038699623,mol/L
C1CN(CCO1)Sc2sc3ccccc3n2,water,298,-3.810962795,mol/L
CC1(C)[C@H]2C[C@@H]3O[C@]3(C)[C@@H]1C2,water,298,-2.593688492,mol/L
[Na+].[Na+].[Na+].[Na+].NC(=O)Nc1cc(Nc2nc(Cl)nc(Nc3cccc(c3)[S](=O)(=O)CCO[S]([O-])(=O)=O)n2)ccc1N=Nc4cc5c(cc(cc5[S]([O-])(=O)=O)[S]([O-])(=O)=O)cc4[S]([O-])(=O)=O,water,298,-0.426136485,mol/L
[Na+].[Na+].CCCCCCCCCCCCNc1nc(Cl)nc(Nc2ccc3c(O)c(N=Nc4ccc(cc4)N=Nc5ccc(cc5)[S]([O-])(=O)=O)c(cc3c2)[S]([O-])(=O)=O)n1,water,298,-3.358911212,mol/L
CCCN(CCC)C(=O)SCC,water,298,-2.703174404,mol/L
C1CC(CCC1COCC2CO2)COCC3CO3,water,298,-1.835797234,mol/L
CC(CC1=CC(=CC(=O)N1O)C)CC(C)(C)C.NCCO,water,298,-3.905464204,mol/L
[OH-].[Ca++].[Ca++].[Ca++].[Ca++].[Ca++].[O-][P]([O-])([O-])=O.[O-][P]([O-])([O-])=O.[O-][P]([O-])([O-])=O,water,298,-4.141900896,mol/L
O=[P+]1Oc2ccccc2c3ccccc13,water,298,-1.779623135,mol/L
[nH]1ccc2ccccc12,water,298,-1.517296002,mol/L
C=COC(=O)c1ccccc1,water,298,-2.622959195,mol/L
COC(=O)c1ccc(cc1)C(C)(C)C,water,298,-3.739816376,mol/L
Cc1cccc(CC(C)(C)CO)c1,water,298,-2.826535469,mol/L
CCCN(CCC)C(=O)SCC,water,298,-2.740647229,mol/L
CC(=O)OC\C=C(C)/CCC=C(C)C,water,298,-3.754953216,mol/L
CC(=O)OC\C=C(C)/CCC=C(C)C,water,298,-3.758110816,mol/L
CCCCCCCC\C=C/CCCCCCCC(O)=O.NCCNCCN,water,298,-4.054699779,mol/L
CC1(C)[C@H]2CC=C(CCO)[C@@H]1C2,water,298,-2.695999804,mol/L
CC1(C)[C@H]2CC=C(CCO)[C@@H]1C2,water,298,-2.699463968,mol/L
NO,water,298,-0.007827728,mol/L
CC1CC(=O)CC(C)(C)C1,water,298,-1.647141463,mol/L
CCOC(=O)CC(C)CC(C)(C)C,water,298,-3.778839505,mol/L
C=CC(=O)OCCOc1ccccc1c2ccccc2,water,298,-3.951518842,mol/L
C1CCC(CC1)N(Sc2sc3ccccc3n2)C4CCCCC4,water,298,-4.062663446,mol/L
SCCC(=O)OCC(COC(=O)CCS)(COC(=O)CCS)COC(=O)CCS,water,298,-5.099066965,mol/L
SCCC(=O)OCC(COC(=O)CCS)(COC(=O)CCS)COC(=O)CCS,water,298,-5.123168748,mol/L
CC(C)(c1ccc(OCC2CO2)cc1)c3ccc(OCC4CO4)cc3,water,298,-4.975711291,mol/L
SCCC(=O)OCC(COC(=O)CCS)(COC(=O)CCS)COC(=O)CCS,water,298,-5.14370945,mol/L
CC(=C)C1CCC(=CC1)C,water,298,-4.622414899,mol/L
CC1=CC[C@H]2C[C@@H]1C2(C)C,water,298,-4.629148281,mol/L
CC1=CCC2CC1C2(C)C,water,298,-4.629148281,mol/L
Cc1cc(cc(C)c1O)C(C)(C)c2cc(C)c(O)c(C)c2,water,298,-4.952868803,mol/L
CCCCCCCCCCCCCCCCCC(=O)OCC(COC(=O)CCCCCCCCCCCCCCCCC)OC(=O)CCCCCCCCCCCCCCCCC,water,298,-5.47300058,mol/L
CCCCCCCC\C=C/CCCCCCCC(O)=O.NCCNCCO,water,298,-5.110164185,mol/L
CCCCCCCC\C=C/CCCCCCCC(O)=O.NCCNCCN,water,298,-5.109057441,mol/L
CC(CC1=CC(=CC(=O)N1O)C)CC(C)(C)C.NCCO,water,298,-4.000621849,mol/L
CC(C)(C)c1ccc(cc1)C(O)=O,water,298,-3.803825213,mol/L
CCOC(=O)CC(C)CC(C)(C)C,water,298,-3.823043168,mol/L
CSSC,water,298,-1.54270558,mol/L
CCOC(=O)CC(C)CC(C)(C)C,water,298,-3.838837435,mol/L
[Ca++].[O-][Si]([O-])=O,water,298,-2.650086994,mol/L
CC(CC1=CC(=CC(=O)N1O)C)CC(C)(C)C.NCCO,water,298,-4.058197606,mol/L
CCc1ccc(C)nc1,water,298,-1.004260454,mol/L
CC(C)CCCCCCO,water,298,-2.769973823,mol/L
CC(C)[C@@H]1CC[C@@H](C)C[C@H]1OC(=O)[C@H](C)O,water,298,-2.979987205,mol/L
C[C@]12C[C@H](O)[C@H]3[C@@H](CCC4=CC(=O)C=C[C@]34C)[C@@H]1CC[C@]2(O)C(=O)CO,water,298,-3.178447129,mol/L
[Na+].[Na+].Cc1ccc(Nc2ccc(Nc3ccc(C)cc3[S]([O-])(=O)=O)c4C(=O)c5ccccc5C(=O)c24)c(c1)[S]([O-])(=O)=O,water,298,-1.427031257,mol/L
[O--].[O--].[O--].[O--].[O--].[O--].[O--].[O--].[O--].[Al+3].[Al+3].[Mo].[Mo],water,298,-4.229152992,mol/L
CC(=C)C(=O)OCCOc1ccccc1,water,298,-2.95264717,mol/L
CCCCOCCOCCOCc1cc2OCOc2cc1CCC,water,298,-4.151088918,mol/L
CF,water,298,-0.175874377,mol/L
C[C@]12C[C@H](O)[C@H]3[C@@H](CCC4=CC(=O)C=C[C@]34C)[C@@H]1CC[C@]2(O)C(=O)CO,water,298,-3.208540167,mol/L
CC(CC1=CC(=CC(=O)N1O)C)CC(C)(C)C.NCCO,water,298,-4.130445839,mol/L
C(COc1ccccc1)Oc2ccccc2,water,298,-3.988526528,mol/L
CCc1cc(Cc2cc(CC)c(N)c(CC)c2Cl)c(Cl)c(CC)c1N,water,298,-7.278038713,mol/L
[Na+].Cc1cc(C)c(Nc2cc(c(N)c3C(=O)c4ccccc4C(=O)c23)[S]([O-])(=O)=O)c(C)c1CNC(=O)c5ccccc5,water,298,-1.439605121,mol/L
CCCC(CCC)C(O)=O,water,298,-1.857977427,mol/L
OC(=O)c1ccc(cc1)[N+]([O-])=O,water,298,-2.921998431,mol/L
[Zn++].[S-]c1sc2ccccc2n1.[S-]c3sc4ccccc4n3,water,298,-4.285895804,mol/L
Oc1ccccc1.ClCC2CO2.C=O,water,298,-4.034756761,mol/L
CCCCCC/C=C/C1CC(=O)OC1=O,water,298,-4.021753515,mol/L
CC(C)CC(C)CC(C)\C=C(/C)C1CC(=O)OC1=O,water,298,-4.124473249,mol/L
C1Cc2cccc3cccc1c23,water,298,-4.731752137,mol/L
CC(C)(c1ccc(O)cc1)c2ccc(O)cc2.ClCC3CO3,water,298,-5.094636314,mol/L
CC(=C)C1CCC(=CC1)C,water,298,-4.750482894,mol/L
CC(=C)C(O)=O.CC(C)(c1ccc(O)cc1)c2ccc(O)cc2.ClCC3CO3,water,298,-5.229282852,mol/L
CC1=CC[C@H]2C[C@@H]1C2(C)C,water,298,-4.772570424,mol/L
CC1=CCC2CC1C2(C)C,water,298,-4.772570424,mol/L
CC1=CC[C@H]2C[C@@H]1C2(C)C,water,298,-4.793854145,mol/L
CC1=CCC2CC1C2(C)C,water,298,-4.793854145,mol/L
C[Si](C)(C)O[Si](C)(C)C,water,298,-4.909505216,mol/L
FC(=C)C(F)(F)F,water,298,-2.759957367,mol/L
O=C1Oc2ccccc2C=C1,water,298,-1.886030361,mol/L
CC(=C)C1CCC(=CC1)C,water,298,-3.84649653,mol/L
[Na+].CCN(CC)c1ccc([C+](c2ccc(cc2)N(CC)Cc3cccc(c3)[S]([O-])(=O)=O)c4ccc(cc4)N(CC)Cc5cccc(c5)[S]([O-])(=O)=O)c(C)c1,water,298,-0.62297793,mol/L
S=[W]=S,water,298,-4.139133643,mol/L
[Na+].[Na+].CC1=NN(C(=O)C1N=Nc2ccc(c3ccc(cc3[S]([O-])(=O)=O)N=NC4C(=NN(C4=O)c5ccccc5)C)c(c2)[S]([O-])(=O)=O)c6ccccc6,water,298,-1.642781181,mol/L
CC(=O)O[C@H]1C[C@H]2CC[C@@]1(C)C2(C)C,water,298,-3.088778192,mol/L
[Pb++].[O-][Si]([O-])=O,water,298,-6.6197116,mol/L
CCCC(=O)OC(C)(C)Cc1ccccc1,water,298,-4.135942613,mol/L
Clc1ccccc1Cl,water,298,-2.974204554,mol/L
[Na+].[Na+].[O-][S](=O)(=O)c1ccc(N\N=C\2C=CC(=O)C(=N/Nc3ccc(c4ccccc34)[S]([O-])(=O)=O)\C2=O)c5ccccc15,water,298,-2.603841144,mol/L
Clc1ccccc1Cl,water,298,-2.974761699,mol/L
Clc1ccccc1Cl,water,298,-2.979808431,mol/L
CCCOCC(C)OCC(C)O,water,298,-0.070052651,mol/L
C=CC(=O)OCCOc1ccccc1,water,298,-2.107693758,mol/L
Clc1ccccc1Cl,water,298,-2.991237893,mol/L
CC1(C)CC(CC(C)(CN=C=O)C1)N=C=O,water,298,-4.170824759,mol/L
CCCCCCCC\C=C/CCCCCCCC(O)=O.NCCNCCO,water,298,-4.411194181,mol/L
CCCCCCCC\C=C/CCCCCCCC(O)=O.NCCNCCN,water,298,-4.410087437,mol/L
Clc1ccccc1Cl,water,298,-2.992978555,mol/L
Clc1ccccc1Cl,water,298,-2.997067437,mol/L
Clc1ccccc1Cl,water,298,-3.00596115,mol/L
CCN(CC[n+]1ccccc1)c2ccc(cc2)N=Nc3ccc(cc3Cl)[N+]([O-])=O.CC([O-])=O,water,298,-1.521890085,mol/L
Clc1ccccc1Cl,water,298,-3.021201116,mol/L
Clc1ccccc1Cl,water,298,-3.030608585,mol/L
Clc1ccccc1Cl,water,298,-3.040224354,mol/L
CC(C)COC(=O)c1ccccc1C(=O)OCC(C)C,water,298,-4.304709019,mol/L
O=C(Oc1ccccc1)Oc2ccccc2,water,298,-4.216916663,mol/L
CCCCC(CC)C(=O)OC=C,water,298,-4.151910976,mol/L
CC(=C)C(=O)NCNC(=O)C(C)=C,water,298,-1.189236756,mol/L
C\1C\C=C/CC\C=C1,water,298,-2.965977173,mol/L
CO[Si](CCCN=C=O)(OC)OC,water,298,-3.256981001,mol/L
CCO[Si](CCCCl)(OCC)OCC,water,298,-3.32858345,mol/L
Cc1ccc(O)c(C)c1.Cc2ccc(C)c(O)c2.Cc3cc(C)cc(O)c3.Cc4ccc(O)cc4C.Cc5cccc(O)c5C.Cc6cccc(C)c6O,water,298,-1.823712475,mol/L
Cc1cccc(C)c1O,water,298,-1.045561224,mol/L
OC(=O)CCCCCCCCCCC(O)=O,water,298,-4.294115619,mol/L
CCCCOC(=O)c1ccccc1C(=O)OCCCC,water,298,-4.387683254,mol/L
[Na+].[Na+].Cc1cc(C)c(c(C)c1Nc2ccc(Nc3c(C)cc(C)c(c3C)[S]([O-])(=O)=O)c4C(=O)c5ccccc5C(=O)c24)[S]([O-])(=O)=O,water,298,-1.79226117,mol/L
Oc1ccc(c(O)c1O)C(=O)c2ccccc2,water,298,-3.345107824,mol/L
[Cl-].CCCCCCCCCCCCCC[N+](C)(C)Cc1ccccc1,water,298,-3.561584268,mol/L
NNC(N)=S,water,298,-0.959704259,mol/L
Clc1ccccc1Cl,water,298,-3.167329152,mol/L
CCCCCCCCC\C=C\CC1CC(=O)OC1=O,water,298,-4.425503245,mol/L
CC(C)CC(C)CC(C)\C=C(/C)C1CC(=O)OC1=O,water,298,-4.425503245,mol/L
CCCCCCCC\C=C/CCCCCCCC(=O)OCC(O)COB(O)O.CCCCCCCC\C=C/CCCCCCCC(=O)OCC(O)COB(O)OCC(O)COC(=O)CCCCCCC\C=C/CCCCCCCC.CCCCCCCC\C=C/CCCCCCCC(=O)OCC(O)COB(OCC(O)COC(=O)CCCCCCC\C=C/CCCCCCCC)OCC(O)COC(=O)CCCCCCC\C=C/CCCCCCCC,water,298,-5.345705158,mol/L
CCCCC(CC)C(=O)OCCOCCOCCOC(=O)C(CC)CCCC,water,298,-5.312587494,mol/L
Fc1ccc(cc1)C(=O)c2ccc(F)cc2,water,298,-5.259677481,mol/L
CCCCCCCCCC(=O)Oc1ccc(cc1)C(O)=O,water,298,-5.42454755,mol/L
CCO[Si](CCCSSCCC[Si](OCC)(OCC)OCC)(OCC)OCC,water,298,-5.676541809,mol/L
CCCCCCCCCCCCCCCC(=O)NCC(O)=O,water,298,-5.541970099,mol/L
COc1ccc(\C=C\C(=O)OCCC(C)C)cc1,water,298,-5.49192521,mol/L
CCCCCCCCCCCCCCCC(=O)NCC(O)=O,water,298,-5.593122622,mol/L
C\1C\C=C/CC\C=C/CC/C=C1,water,298,-5.365156254,mol/L
CCCCCCCCCCCCCCCC(=O)NCC(O)=O,water,298,-5.651114569,mol/L
CC(CCN(CCC(C)CC(C)(C)C)C(=S)S[Zn]SC(=S)N(CCC(C)CC(C)(C)C)CCC(C)CC(C)(C)C)CC(C)(C)C,water,298,-6.102526939,mol/L
BrCc1ccc(cc1)c2ccccc2C#N,water,298,-6.656649109,mol/L
CCCCCCCCCCCCCCCCCC(=O)OC1CC(C)(C)NC(C)(C)C1.CCCCCCCCCCCCCCCC(=O)OC2CC(C)(C)NC(C)(C)C2,water,298,-6.214524895,mol/L
CCCCC(CC)CNC(=O)CCCCCC(C)C,water,298,-5.731545253,mol/L
CO[C@H]1C[C@@H](O[C@@H](C)[C@@H]1O)OC2[C@H](C)O[C@H](C[C@@H]2OC)OC3[C@@H](C)/C=C/C=C/4CO[C@@H]5[C@H](O)C(=C[C@@H](C(=O)O[C@H]6C[C@@H](C\C=C3/C)O[C@@]7(C6)O[C@@H]([C@@H](C)C=C7)C8CCCCC8)[C@]45O)C,water,298,-7.555881514,mol/L
[OH-].[Ca++].[Ca++].[Ca++].[Ca++].[Ca++].[O-][P]([O-])([O-])=O.[O-][P]([O-])([O-])=O.[O-][P]([O-])([O-])=O,water,298,-6.229677519,mol/L
c1ccc(cc1)c2ccc(cc2)c3ccccc3,water,298,-6.183335848,mol/L
CCCCOC(=O)c1ccc(cc1)C(=O)OCCCC,water,298,-6.268496846,mol/L
c1cc2ccc3cccc4ccc(c1)c2c34,water,298,-6.178796616,mol/L
CCCCOC(=O)c1ccc(cc1)C(=O)OCCCC,water,298,-6.40319542,mol/L
CC(C)CCCCCCCOC(=O)CCCCCCCCC(=O)OCCCCCCCC(C)C,water,298,-6.701487033,mol/L
CC(C)CCCCCCCOC(=O)CCCCCCCCC(=O)OCCCCCCCC(C)C,water,298,-6.706034661,mol/L
CC(C)CCCCCCCOC(=O)CCCCCCCCC(=O)OCCCCCCCC(C)C,water,298,-6.710630412,mol/L
CCC(CC)CC1(CCCCC1)C#N,water,298,-6.587338232,mol/L
COc1ccc(cc1)N2CCN(CC2)c3ccc(cc3)[N+]([O-])=O,water,298,-6.929013035,mol/L
CCCCC(CC)COC(=O)c1ccccc1C(=O)OCC(CC)CCCC,water,298,-7.129294212,mol/L
C(Oc1ccc2ccccc2c1)c3ccccc3,water,298,-6.938404817,mol/L
CC(C)CCCCCCCOC(=O)CCCCCCCCC(=O)OCCCCCCCC(C)C,water,298,-7.252394502,mol/L
CCCCN(CCCC)c1ccc2c(Oc3cc(C)c(Nc4ccccc4)cc3C25OC(=O)c6ccccc56)c1,water,298,-7.404250358,mol/L
C[Si]1(C)O[Si](C)(C)O[Si](C)(C)O[Si](C)(C)O1,water,298,-7.171170435,mol/L
FC1(F)Oc2cccc(C=O)c2O1,water,298,-2.155833357,mol/L
CCNc1cc(C#N)c(N)c2C(=O)c3ccccc3C(=O)c12,water,298,-7.638280591,mol/L
COc1cc(N=Nc2c(Br)cc(cc2[N+]([O-])=O)[N+]([O-])=O)c(NC(C)=O)cc1N(CCOC(C)=O)CCOC(C)=O,water,298,-8.080146895,mol/L
COc1cc(N=Nc2c(Cl)cc(cc2[N+]([O-])=O)[N+]([O-])=O)c(NC(C)=O)cc1N(CCOC(C)=O)CCOC(C)=O,water,298,-8.048126442,mol/L
CCCCCCCC\C=C/CCCCCCCCNCCCN.CCCCCCCC\C=C/CCCCCCCC(O)=O.CCCCCCCC\C=C/CCCCCCCC(O)=O,water,298,-8.25019206,mol/L
CCCCC(CC)COC(=O)c1ccc(Nc2nc(Nc3ccc(cc3)C(=O)NC(C)(C)C)nc(Nc4ccc(cc4)C(=O)OCC(CC)CCCC)n2)cc1,water,298,-8.185258765,mol/L
O=[V]=O,water,298,-2.380944936,mol/L
O=[V]=O,water,298,-4.400250091,mol/L
[OH-].[OH-].[Ca++],water,298,-1.87020583,mol/L
[Cl-].CCCCCCCCCCCC[n+]1ccccc1,water,298,-0.453910537,mol/L
Cc1cccc(C)c1OCC(O)=O,water,298,-2.256644531,mol/L
Cc1cccc(C)c1OCC(O)=O,water,298,-2.257088639,mol/L
CCCCC(CC)C(=O)O[Co]OB(O[Co])O[Co](OC(=O)C(CC)CCCC)OC(=O)C(CC)CCCC,water,298,-1.825456144,mol/L
[Na+].[Na+].OCC1=CC(=N/Nc2ccc(c3ccccc23)[S]([O-])(=O)=O)\C(=O)/C(=N/Nc4ccc(c5ccccc45)[S]([O-])(=O)=O)C1=O,water,298,-0.817164744,mol/L
CC(=O)c1ccc(O)cc1,water,298,-1.138382451,mol/L
[O--].[O--].[Mg++].[Ca++],water,298,-1.988356233,mol/L
C[C@]12CCC(=O)C=C1CC[C@@H]3[C@@H]2CC[C@@]4(C)[C@H]3C(O)CC4=O,water,298,-1.485844948,mol/L
[Na+].[Na+].Nc1ccc2cc(c(N=Nc3ccc(N=Nc4cccc(C([O-])=O)c4O)c5ccccc35)c(O)c2c1)[S]([O-])(=O)=O,water,298,-2.786820452,mol/L
[Mg++],water,298,-2.375356771,mol/L
CC(C)=CCC\C(C)=C\C=C\C(C)=O,water,298,-3.297212067,mol/L
Oc1c(Br)cc(Br)cc1Br,water,298,-2.533243037,mol/L
C=CN1CCN(C=C)C1=O,water,298,-1.155886444,mol/L
Nc1cc(ccc1O)[N+]([O-])=O,water,298,-2.205601857,mol/L
[Mg++],water,298,-2.402069338,mol/L
Nc1ccc(Cl)cc1[N+]([O-])=O,water,298,-3.254696583,mol/L
[Na+].Oc1ccccc1C([O-])=O,water,298,0.777235242,mol/L
O=[Ca],water,298,-1.76832688,mol/L
[O-][N+](=O)c1ccc2NC(=O)Nc2c1,water,298,-3.274087547,mol/L
Cc1ccc(cc1)[S](=O)(=O)/C(=C/N2CC(=O)NC2=S)C#N,water,298,-3.529299295,mol/L
[Co+3].CCN(CC)c1ccc2c(c1)[o+]c3cc(ccc3c2c4ccccc4C(O)=O)N(CC)CC.CC(C)OCCCN[S](=O)(=O)c5ccc([O-])c(c5)N=Nc6c(C)nn(c6[O-])c7ccccc7.CC(C)OCCCN[S](=O)(=O)c8ccc([O-])c(c8)N=Nc9c(C)nn(c9[O-])c%10ccccc%10,water,298,-3.184150394,mol/L
Cc1cccc(C)c1OCC(O)=O,water,298,-2.282273941,mol/L
[OH-].[OH-].[Ca++],water,298,-1.898959707,mol/L
CCC1=C(O)C(=O)C=CO1,water,298,-1.17595802,mol/L
CCOC(=O)c1ccccc1C(=O)OCC,water,298,-2.377406316,mol/L
COC(=O)Cc1ccccc1,water,298,-2.211401723,mol/L
[Co++].CCCCCCCCCCCCCCCCCC([O-])=O.CCCCCCCCCCCCCCCCCC([O-])=O,water,298,-3.829883557,mol/L
O.[Pb].O[S](O)(=O)=O,water,298,-4.226296416,mol/L
Cc1c(Cl)cccc1[N+]([O-])=O,water,298,-3.27068643,mol/L
Clc1ccc(C=O)cc1,water,298,-2.184574044,mol/L
[OH-].[OH-].[Ca++],water,298,-1.910729926,mol/L
[Si+4].[Si+4].[Si+4].[O-][P]([O-])([O-])=O.[O-][P]([O-])([O-])=O.[O-][P]([O-])([O-])=O.[O-][P]([O-])([O-])=O,water,298,-3.055986963,mol/L
CCCCCCCl,water,298,-3.122388733,mol/L
CC(=C)C(=O)OCC(F)(F)F,water,298,-2.268475684,mol/L
[Na+].[Na+].[O-]C(=O)c1ccccc1C2=C3C=C(I)C(=O)C(=C3Oc4c(I)c([O-])c(I)cc24)I,water,298,-0.990170571,mol/L
[O-][N+](=O)O[Bi](O[N+]([O-])=O)O[N+]([O-])=O,water,298,-2.642008137,mol/L
S=C1Nc2ccccc2S1,water,298,-2.26914439,mol/L
CC(C)c1ccc(C)cc1O,water,298,-2.222488139,mol/L
CCCCCCC(C)=O,water,298,-2.153696327,mol/L
CCCCC/C=C/CC(CC(O)=O)C(O)=O,water,298,-2.404240574,mol/L
CCCC(CCC)(C(O)=O)C(CCC)(\C=C\C)C(O)=O,water,298,-3.495359601,mol/L
Clc1ccc(Cl)cc1,water,298,-3.210200954,mol/L
C[C@H]1CC(=O)C=C2CC[C@H]3[C@@H]4CC[C@H](O)[C@@]4(C)CC[C@@H]3[C@@]12C,water,298,-3.526422567,mol/L
[Na+].CC\1=Nc2ccccc2C1=N/Nc3cc(Cl)c(cc3Cl)[S](=O)(=O)NCC[S]([O-])(=O)=O,water,298,-3.756179517,mol/L
[Si+4].[Si+4].[Si+4].[O-][P]([O-])([O-])=O.[O-][P]([O-])([O-])=O.[O-][P]([O-])([O-])=O.[O-][P]([O-])([O-])=O,water,298,-3.350676781,mol/L
[Si+4].[Si+4].[Si+4].[O-][P]([O-])([O-])=O.[O-][P]([O-])([O-])=O.[O-][P]([O-])([O-])=O.[O-][P]([O-])([O-])=O,water,298,-2.631057309,mol/L
CC(C)(O)C(=O)c1ccc(Cc2ccc(cc2)C(=O)C(C)(C)O)cc1,water,298,-4.536378597,mol/L
[O--].[O--].[O--].[O--].[O--].[O--].[O--].[O--].[O--].[O--].[O--].[O--].[O--].[O--].[O--].[O--].[O--].[O--].[O--].[Fe+3].[Fe+3].[Fe+3].[Fe+3].[Fe+3].[Fe+3].[Fe+3].[Fe+3].[Fe+3].[Fe+3].[Fe+3].[Fe+3].[Ba++],water,298,-8.744859544,mol/L
OC(=O)CCCCCNc1nc(NCCCCCC(O)=O)nc(NCCCCCC(O)=O)n1,water,298,-1.676575448,mol/L
C=CC(=O)OCC1CCC2C3CC(CC3COC(=O)C=C)C12,water,298,-4.493085819,mol/L
CC(=O)[C@H]1CC[C@H]2[C@@H]3CCC4=CC(=O)CC[C@]4(C)[C@H]3CC[C@]12C,water,298,-4.508128022,mol/L
[O--].[O--].[O--].[K+].[K+].[Ti+4],water,298,-5.094570944,mol/L
O=C(Nc1ccccc1)Nc2ccccc2N[S](=O)(=O)c3ccccc3,water,298,-4.578402879,mol/L
[O--].[O--].[O--].[K+].[K+].[Ti+4],water,298,-5.583643126,mol/L
CCCCC(CC)COC(=O)C=C,water,298,-4.283204614,mol/L
[O--].[O--].[O--].[K+].[K+].[Ti+4],water,298,-5.585560544,mol/L
[Zn++].CCCCC(CC)CO[P]([S-])(=S)OCC(CC)CCCC.CCCCC(CC)CO[P]([S-])(=S)OCC(CC)CCCC,water,298,-4.928855971,mol/L
OC(=O)c1ccccc1Nc2cccc(c2)C(F)(F)F,water,298,-4.490502396,mol/L
CCCCCCCCCCCCCCCCCCCCCC(=O)NCCCN(C)C,water,298,-4.673899058,mol/L
[O--].[O--].[O--].[K+].[K+].[Ti+4],water,298,-5.860487738,mol/L
CC(=O)OC1CC2CC1C3CCCC23,water,298,-3.338049828,mol/L
CCS,water,298,-0.84591656,mol/L
CCOC(=O)c1ccc(O)cc1,water,298,-2.27362503,mol/L
CN(C)Cc1cc(c(O)c(c1)C(C)(C)C)C(C)(C)C,water,298,-1.474204724,mol/L
Oc1ccc(Cl)c(O)c1,water,298,-1.213586862,mol/L
CCOC=O,water,298,0.076265592,mol/L
CCOC=O,water,298,0.076019603,mol/L
CCCCOC(=O)C(C)=C,water,298,-2.207424903,mol/L
ClC=C,water,298,-0.851390396,mol/L
CCCCC(CC)COC(=O)OOC(=O)OCC(CC)CCCC,water,298,-2.595175443,mol/L
S(Sc1sc2ccccc2n1)c3sc4ccccc4n3,water,298,-3.577308978,mol/L
C[C@H](CCC=C(C)C)CC=O,water,298,-3.243750947,mol/L
CC(C)[C@@]12CC[C@@](C)(O1)[C@@H](O)C2,water,298,-0.288092629,mol/L
CC(C)c1ccc(CCC=O)cc1,water,298,-3.302656786,mol/L
CCCCBr,water,298,-2.197764187,mol/L
NC(Nc1ccccc1)=Nc2ccccc2,water,298,-2.39033527,mol/L