Solute,Solvent,Temperature_K,Solubility,Units
CC(C)NCC(O)COC1=CC=CC2=C1C=C[NH]2,water,298,-3.7,mol/L
CC(OC1=CC(=C(Cl)C=C1Cl)Cl)C(O)=O,water,298,-3.58,mol/L
CC12CC(O)C3(F)C(CCC4=CC(=O)CCC34C)C1CCC2(O)C(=O)CO,water,298,-3.54,mol/L
CC1CC2C3CCC(O)(C(C)=O)C3(C)CC(O)C2(F)C4(C)C=CC(=O)C=C14,water,298,-4.1,mol/L
OC(=O)COC1=CC2=C(C=CC=C2)C=C1,water,298,-3.36,mol/L
NC(CC1=C[NH]C2=C1C=CC=C2)C(O)=O,water,298,-1.18,mol/L
C[N]1C=NC2=C1C(=O)N(C)C(=O)N2C,water,298,-0.91,mol/L
CC(C)NCC1CCC2=C(N1)C=C(C(=C2)CO)[N+]([O-])=O,water,298,-2.97,mol/L
ClC1=C(Cl)C2=C(C(=O)OC2)C(=C1Cl)Cl,water,298,-5.04,mol/L
[NH]1C2=C(C=CC=C2)C3=C1C=CC=C3,water,298,-5.27,mol/L
CC1CC2C3CCC(O)(C(=O)CO)C3(C)CC(O)C2C4(C)C=CC(=O)C=C14,water,298,-3.49,mol/L
CCC(C)C1=C(O)C(=CC(=C1)[N+]([O-])=O)[N+]([O-])=O,water,298,-3.67,mol/L
ClC1=CC=C(C=C1)C2=CC=C(Cl)C=C2,water,298,-6.6,mol/L
CNC(=O)OC1=CC=CC2=CC=CC=C12,water,298,-3.28,mol/L
NC(=S)NC1=CC=CC2=C1C=CC=C2,water,298,-2.53,mol/L
CC12CCC3C(CCC4=CC(=CC=C34)O)C1CCC2(O)C#C,water,298,-4.47,mol/L
C=CCC1(C(=O)NC(=O)NC1=O)C2=CC=CC=C2,water,298,-2.37,mol/L
O=NN(C1=CC=CC=C1)C2=CC=CC=C2,water,298,-3.75,mol/L
CCC1(C(=O)NC(=O)N(C)C1=O)C2=CC=CC=C2,water,298,-3.68,mol/L
ClC1=C(Cl)C=C(C=C1)C2=CC=CC=C2,water,298,-7.44,mol/L
O1C2=C(C=CC=C2)C3=C1C=CC=C3,water,298,-4.6,mol/L
ClC1=CC2=C(C=C1)C=C(Cl)C=C2Cl,water,298,-6.55,mol/L
ClC1=CC=CC(=C1)C2=CC=CC(=C2)Cl,water,298,-5.8,mol/L
ClC1=CC=C(C=C1)C2=C(Cl)C=CC=C2,water,298,-5.46,mol/L
COC(=O)C1(CC1)[S](=O)(=O)C2=CC=C(C)C=C2,water,298,-2.88,mol/L
CCCCN1CCCCC1C(=O)NC2=C(C)C=CC=C2C,water,298,-3.22,mol/L
CN1C2CC(CC1C3OC23)OC(=O)C(CO)C4=CC=CC=C4,water,298,-1.24,mol/L
CCN(CC)CCNC(=O)C1=CC(=C(N)C=C1OC)Cl,water,298,-3.18,mol/L
ClC1=CC=CC(=C1Cl)C2=CC=CC=C2,water,298,-5.35,mol/L
NC(CC1=CC=C(C=C1)N(CCCl)CCCl)C(O)=O,water,298,-3.49,mol/L
COC(=O)N[S](=O)(=O)C1=CC=C(N)C=C1,water,298,-1.76,mol/L
ClC1=CC=CC=C1C2=C(Cl)C=CC=C2,water,298,-4.35,mol/L
CC(=O)OCC(=O)C1CCC2C3CCC4=CC(=O)CCC4(C)C3CCC12C,water,298,-4.97,mol/L
ClC1=C(C(=CC=C1)Cl)C2=CC=CC=C2,water,298,-4.97,mol/L
CC1=CC(=CC=C1N)C2=CC(=C(N)C=C2)C,water,298,-2.21,mol/L
NC1=NC2=C(N=C[N]2COCCO)C(=O)N1,water,298,-2.12,mol/L
[O-][N+](=O)C1=C(Cl)C(=C(Cl)C(=C1Cl)Cl)Cl,water,298,-5.83,mol/L
COC1=CC=C2C3CCC4(C)C(CCC4(O)C#C)C3CCC2=C1,water,298,-5.49,mol/L
CC12CCC(=O)C=C1CCC3C4CCC(O)(C(=O)CO)C4(C)CC(=O)C23,water,298,-3.11,mol/L
NC1=NC(=C(C=C1)N=NC2=CC=CC=C2)N,water,298,-4.24,mol/L
OC1=C(I)C=C(C=C1I)C#N,water,298,-3.46,mol/L
ClC(Cl)(Cl)SN1C(=O)C2CC=CCC2C1=O,water,298,-4.77,mol/L
OC(C1=CC=CC=C1)C(=O)C2=CC=CC=C2,water,298,-2.85,mol/L
CCOC(=O)C1(CC1)[S](=O)(=O)C2=CC=C(C)C=C2,water,298,-3.01,mol/L
COC(=O)C[S](=O)(=O)C1=CC=C(Cl)C=C1,water,298,-2.38,mol/L
OC1=C(C=CC=C1)C(=O)NC2=CC=CC=C2,water,298,-3.59,mol/L
CN1C(=O)N(C)C2=C([NH]C(=N2)Cl)C1=O,water,298,-1.51,mol/L
C1=CC2=CC3=CC=CC=C3C=C2C=C1,water,298,-6.6,mol/L
CC(C)NCC(O)COC1=CC=CC2=C1C=CC=C2,water,298,-3.62,mol/L
OC1=C(C=C(C=C1[N+]([O-])=O)[N+]([O-])=O)[N+]([O-])=O,water,298,-1.97,mol/L
CN1N(C2=CC=CC=C2)C(=O)C(=C1C)N,water,298,0.31,mol/L
CC1CC2C3CCC4=CC(=O)C=CC4(C)C3(F)C(O)CC2(C)C1(O)C(=O)CO,water,298,-3.83,mol/L
ClC1(Cl)C2(Cl)C3(Cl)C4(Cl)C(=O)C5(Cl)C3(Cl)C1(Cl)C5(Cl)C24Cl,water,298,-5.26,mol/L
O=C1N[S](=O)(=O)C2=CC=CC=C12,water,298,-1.73,mol/L
CC(C)(C1=CC=C(O)C=C1)C2=CC=C(O)C=C2,water,298,-2.82,mol/L
COC(=O)C1(CCCC1)[S](=O)(=O)C2=CC=CC=C2,water,298,-2.55,mol/L
OC(=O)C1=CC=CC=C1NC2=CC=CC=C2,water,298,-4.96,mol/L
C1=CC2=C(C=C1)C3=C(C=CC=C3)C=C2,water,298,-5.14,mol/L
CC(=O)NC1=NN=C(S1)[S](N)(=O)=O,water,298,-2.5,mol/L
CC12CC(O)C3(F)C(CCC4=CC(=O)C=CC34C)C1CC(O)C2(O)C(=O)CO,water,298,-3.68,mol/L
ClC1=CC=C(OC2=C(Cl)C=CC=C2)C=C1,water,298,-5.52,mol/L
COC(=O)C1(CC1)[S](=O)(=O)C2=CC=C(Cl)C=C2,water,298,-3.31,mol/L
OCC1CCC(O1)[N]2C=NC3=C2N=CNC3=O,water,298,-0.94,mol/L
OC(=O)C(C1=CC=CC=C1)C2=CC=CC=C2,water,298,-3.22,mol/L
CC1=CC(=NO1)C(=O)NNCC2=CC=CC=C2,water,298,-2.46,mol/L
CC1=NNC(=O)N(C1)/N=C/C2=CC=CN=C2,water,298,-2.87,mol/L
CC12CC1(C)C(=O)N(C2=O)C3=CC(=CC(=C3)Cl)Cl,water,298,-4.8,mol/L
OCC(NC(=O)C(Cl)Cl)C(O)C1=CC=C(C=C1)[N+]([O-])=O,water,298,-2.92,mol/L
COC(=O)C1C(CC2CCC1N2C)OC(=O)C3=CC=CC=C3,water,298,-2.25,mol/L
C1=CC2=C(C=C1)N=C3C=CC=CC3=N2,water,298,-3.7,mol/L
CC(C)OC(=O)C1(CC1)[S](=O)(=O)C2=CC=C(C)C=C2,water,298,-3.23,mol/L
OC1=C(C=C(C=C1[N+]([O-])=O)[N+]([O-])=O)C2CCCCC2,water,298,-4.25,mol/L
ClC1=C(OC2=CC=CC=C2)C(=CC=C1)Cl,water,298,-5.06,mol/L
O=C(NC1=CN=NS1)NC2=CC=CC=C2,water,298,-3.85,mol/L
OC(=O)C(O)(C1=CC=CC=C1)C2=CC=CC=C2,water,298,-2.21,mol/L
C1=CC2=CC=C3C=CC=NC3=C2N=C1,water,298,-1.83,mol/L
CCOC(=O)C1(CCC1)[S](=O)(=O)C2=CC=C(C)C=C2,water,298,-2.96,mol/L
CCCCNC(=O)N[S](=O)(=O)C1=CC=C(C)C=C1,water,298,-3.17,mol/L
CC1=NC(=NC(=C1)C2CC2)NC3=CC=CC=C3,water,298,-4.05,mol/L
COC(=O)C1(CCCCC1)[S](=O)(=O)C2=CC=CC=C2,water,298,-3.85,mol/L
OCC1OC(CC1O)N2C=C(I)C(=O)NC2=O,water,298,-2.25,mol/L
ClC1=C(Cl)C(=CC=C1)C2=C[NH]C=C2C#N,water,298,-4.69,mol/L
CC(=O)OCC(=O)C1(O)CCC2C3CCC4=CC(=O)CCC4(C)C3C(O)CC12C,water,298,-4.61,mol/L
CCOC(=O)C1=CN=C[N]1C(C)C2=CC=CC=C2,water,298,-4.73,mol/L
COC1=CC=C2C=C(C=CC2=C1)C(C)C(O)=O,water,298,-3.29,mol/L
CC12CC3=C(ON=C3)C=C1CCC4C2CCC5(C)C4CCC5(O)C#C,water,298,-5.51,mol/L
COC(=O)C1(CCC1)[S](=O)(=O)C2=CC=C(Cl)C=C2,water,298,-3.0,mol/L
ClC1=CC=C(C=C1)C2=CC(=C(Cl)C=C2)Cl,water,298,-7.06,mol/L
O1C2=C(OC3=C1C=CC=C3)C=CC=C2,water,298,-5.34,mol/L
CC(=O)OC1(CCC2C3C=C(C)C4=CC(=O)CCC4(C)C3CCC12C)C(C)=O,water,298,-5.41,mol/L
NC1=NC2=C(N=C[N]2COC(CO)CO)C(=O)N1,water,298,-1.77,mol/L
CC1N(C)CN2C(=O)C3=C(C=CC=C3)N=C12,water,298,0.03,mol/L
ClC1=CC=C(C=C1)C2=C(Cl)C=C(Cl)C=C2,water,298,-6.0,mol/L
CC1=C2C=CC=CC2=CC3=C1C=CC=C3,water,298,-5.87,mol/L
CC(C)OC(=O)C[S](=O)(=O)C1=CC=C(Cl)C=C1,water,298,-2.41,mol/L
CCC(CC)NC1=C(C(=C(C)C=C1[N+]([O-])=O)C)[N+]([O-])=O,water,298,-6.01,mol/L
ClC1=CC=C(C=C1)C2=CC(=CC=C2Cl)Cl,water,298,-6.26,mol/L
CC1=CN(C2CC(N=[N+]=[N-])C(CO)O2)C(=O)NC1=O,water,298,-1.16,mol/L
ClC1=CC=C(C=C1)C2=C(Cl)C(=CC=C2)Cl,water,298,-6.26,mol/L
CC(C)OC(=O)C1(CCC1)[S](=O)(=O)C2=CC=C(C)C=C2,water,298,-3.34,mol/L
ClC1=C(Cl)C=C(C=C1)C2=CC=CC=C2Cl,water,298,-6.51,mol/L
ClC1=CC2=C(C=C(Cl)C=C2Cl)C(=C1)Cl,water,298,-7.82,mol/L
OC(=O)C1=C(O)C(=CC(=C1)I)I,water,298,-3.31,mol/L
ClC1=CC(=CC=C1)C2=C(Cl)C=CC(=C2)Cl,water,298,-6.01,mol/L
CC(=O)OCC(=O)C1(O)CCC2C3CCC4=CC(=O)C=CC4(C)C3C(O)CC12C,water,298,-4.38,mol/L
S1C2=C(C=CC=C2)C3=C1C=CC=C3,water,298,-5.1,mol/L
NC(=O)C1=CC(=C(C=C1[N+]([O-])=O)[N+]([O-])=O)N2CC2,water,298,-2.3,mol/L
CC(C)OC(=O)C1(CC1)[S](=O)(=O)C2=CC=C(Cl)C=C2,water,298,-3.54,mol/L
ClC1=CC(=C(C=C1Cl)C2=CC=CC=C2)Cl,water,298,-6.45,mol/L
ClC1=CC=CC2=C1C=C(Cl)C(=C2Cl)Cl,water,298,-7.86,mol/L
CC1=C(C)[S](=O)(=O)CC[S]1(=O)=O,water,298,-1.85,mol/L
COC(=O)C[S](=O)(=O)C1=CC=C(Br)C=C1,water,298,-2.48,mol/L
ClC1=C(Cl)C(=C(C=C1)C2=CC=CC=C2)Cl,water,298,-6.18,mol/L
ClC1=C(Cl)C2=C(C=CC=C2)C(=C1Cl)Cl,water,298,-7.8,mol/L
ClC1=CC(=C(C(=C1)Cl)C2=CC=CC=C2)Cl,water,298,-6.06,mol/L
ClC1=CC(=C(Cl)C=C1)C2=CC=CC=C2Cl,water,298,-5.81,mol/L
N[S](=O)(=O)C1=CC2=C(SCCC2O)S1,water,298,-2.59,mol/L
COC(=O)C1(CCCCC1)[S](=O)(=O)C2=CC=C(C)C=C2,water,298,-4.61,mol/L
CN1N=C(SC1=NC(C)=O)[S](N)(=O)=O,water,298,-1.92,mol/L
COC1=C2OC3C(O)C=CC4C5CC(=C2C34CCN5C)C=C1,water,298,-2.15,mol/L
COC(=O)C1(CC1)[S](=O)(=O)C2=CC=C(Br)C=C2,water,298,-3.67,mol/L
ClC1=CC=C(Cl)C(=C1Cl)C2=CC=CC=C2,water,298,-6.29,mol/L
COC(=O)C1=C(C=CC(=C1)C)C2=NC(C)(C(C)C)C(=O)N2,water,298,-2.12,mol/L
COC(=O)C1=C(C=C(C)C=C1)C2=NC(C)(C(C)C)C(=O)N2,water,298,-2.35,mol/L
CC(C)N1C(=O)N(CSC1=NC(C)(C)C)C2=CC=CC=C2,water,298,-5.53,mol/L
ClC1=CC=CC=C1C2=C(Cl)C=CC=C2Cl,water,298,-5.9,mol/L
[O-][N+](=O)C1=CC=C(O1)\C=N\N2CC(=O)NC2=O,water,298,-3.38,mol/L
CN(C)C1=C(C)N(C)N(C2=CC=CC=C2)C1=O,water,298,-0.36,mol/L
CC1=CC=CC2=C1[N]3C=NN=C3S2,water,298,-2.07,mol/L
NC1=C(Cl)C=C(C=C1)C2=CC=C(N)C(=C2)Cl,water,298,-4.92,mol/L
CN(C)C(=O)C(C1=CC=CC=C1)C2=CC=CC=C2,water,298,-3.0,mol/L
ClC1(Cl)C2(Cl)C3(Cl)C4(Cl)C(Cl)(Cl)C5(Cl)C3(Cl)C1(Cl)C5(Cl)C24Cl,water,298,-6.8,mol/L
CO[P](=S)(OC)OC1=CC=C(C=C1)[N+]([O-])=O,water,298,-3.68,mol/L
CCC(C)NC1=C(C=C(C=C1[N+]([O-])=O)C(C)(C)C)[N+]([O-])=O,water,298,-5.47,mol/L
CC1=NC(=O)C(=C(NCC2=CN=CC=C2)N1)C#N,water,298,-2.35,mol/L
CCOC1OC2=CC=C(O[S](C)(=O)=O)C=C2C1(C)C,water,298,-3.42,mol/L
ClC1=CC=C(OC2=C(Cl)C=C(Cl)C=C2)C=C1,water,298,-6.22,mol/L
CC(C)(C)OC(=O)C1(CC1)[S](=O)(=O)C2=CC=C(Cl)C=C2,water,298,-4.12,mol/L
NC1=NC=NC2=C1N=C[N]2C3OC(CO)C(O)C3O,water,298,-1.73,mol/L
CC(C(O)=O)C1=CC=C(C(=C1)F)C2=CC=CC=C2,water,298,-4.29,mol/L
O=C1CN(CC2N1CCC3=C2C=CC=C3)C(=O)C4CCCCC4,water,298,-2.89,mol/L
CC1=CC=CC(=C1C)NC2=CC=CC=C2C(O)=O,water,298,-6.74,mol/L
CN[P](=O)(OC)OC1=CC=C(C=C1Cl)C(C)(C)C,water,298,-3.16,mol/L
CC(C)OC(=O)C1(CCCC1)[S](=O)(=O)C2=CC=C(C)C=C2,water,298,-3.91,mol/L
COC1=CC=C(C=C1)C(O)(C2CC2)C3=CN=CN=C3,water,298,-2.6,mol/L
CN1C(=O)N(C)C2=C([N](CC(O)CO)C=N2)C1=O,water,298,0.12,mol/L
OC1=C(CC2=C(O)C=CC(=C2)Cl)C=C(Cl)C=C1,water,298,-3.95,mol/L
CNC(=O)C1=CC(=C(C=C1[N+]([O-])=O)[N+]([O-])=O)N2CC2,water,298,-2.85,mol/L
[NH]1C2=CC=CC=C2N=C1C3=CSC=N3,water,298,-1.3,mol/L
CC1(C)OC2CC3C4CCC5=CC(=O)C=CC5(C)C4(F)C(O)CC3(C)C2(O1)C(=O)CO,water,298,-4.31,mol/L
CC1=C2C=CC=CC2=C(C)C3=C1C=CC=C3,water,298,-6.57,mol/L
COC(=O)C1(CCC1)[S](=O)(=O)C2=CC=C(Br)C=C2,water,298,-3.55,mol/L
CC(=O)OC1(CCC2C3C=C(Cl)C4=CC(=O)C=CC4(C)C3CCC12C)C(C)=O,water,298,-4.95,mol/L
COC1=CC(=CC=C1N)C2=CC(=C(N)C=C2)OC,water,298,-3.61,mol/L
CSC(/C)=N/OC(=O)N(C)SN(C)C(=O)O\N=C(/C)SC,water,298,-4.01,mol/L
CCCSC1=CC2=C([NH]C(=N2)NC(=O)OC)C=C1,water,298,-4.22,mol/L
CCCC(C[N]1C=NC=N1)C2=C(Cl)C=C(Cl)C=C2,water,298,-3.59,mol/L
CCCN1CN2C(=O)C3=C(C=CC=C3)N=C2C1C,water,298,-2.67,mol/L
CCCCC(C[N]1C=NC=N1)(C#N)C2=CC=C(Cl)C=C2,water,298,-3.31,mol/L
CC(=O)SC1CC2=CC(=O)CCC2(C)C3CCC4(C)C(CCC45CCC(=O)O5)C13,water,298,-4.17,mol/L
CN1CCC23C4CCC(=O)C2OC5=C(O)C=CC(=C35)CC14,water,298,-2.1,mol/L
N[S](=O)(=O)C1=CC2=C(SCCC2=O)S1,water,298,-3.55,mol/L
N[S](=O)(=O)C1=CC2=C(S1)C(=O)CCS2,water,298,-3.49,mol/L
N[S](=O)(=O)C1=CC2=C(S1)C(O)CCS2,water,298,-2.25,mol/L
OC(=O)CCC(=O)C1=CC=C(C=C1)C2=CC=CC=C2,water,298,-5.06,mol/L
CC(C)OC(=O)C1(CCCCC1)[S](=O)(=O)C2=CC=C(C)C=C2,water,298,-4.62,mol/L
CC(=O)OCC(=O)C1(O)CCC2C3CCC4=CC(=O)CCC4(C)C3C(=O)CC12C,water,298,-4.33,mol/L
ClC1=NC(=NC(=N1)NC2=CC=CC=C2Cl)Cl,water,298,-4.54,mol/L
NC1=C(C2=CC=CC=C2C=C1)[S](O)(=O)=O,water,298,-1.7,mol/L
C[N]1C(=CC=C1C(=O)C2=CC=C(C)C=C2)CC(O)=O,water,298,-4.09,mol/L
N1C2=C(SC3=CC=CC=C13)C=CC=C2,water,298,-5.1,mol/L
OC(C1CC2CCN1CC2C=C)C3=CC=NC4=CC=CC=C34,water,298,-3.17,mol/L
ClC1=C(Cl)C=C(C=C1)C2=CC=C(Cl)C(=C2)Cl,water,298,-8.48,mol/L
CN(C)C(=O)C1=CC(=C(C=C1[N+]([O-])=O)[N+]([O-])=O)N2CC2,water,298,-2.48,mol/L
CC(C)OC(=O)C1(CCCC1)[S](=O)(=O)C2=CC=C(Cl)C=C2,water,298,-4.65,mol/L
ClC1=CC=C(C=C1)C2=CC(=C(Cl)C(=C2)Cl)Cl,water,298,-7.96,mol/L
ClC1=CC(=C(C=C1)C2=CC=C(Cl)C(=C2)Cl)Cl,water,298,-7.8,mol/L
CCC(/C1=CC=C(O)C=C1)=C(CC)\C2=CC=C(O)C=C2,water,298,-4.07,mol/L
CCN(CC)C(=O)C(C)OC1=CC=CC2=C1C=CC=C2,water,298,-3.6,mol/L
ClC1=CC=C(C=C1)C2=C(Cl)C=C(Cl)C(=C2)Cl,water,298,-7.77,mol/L
CO[P](=S)(OC)OC1=C(Cl)C=C(C)C=C1Cl,water,298,-5.44,mol/L
OC(=O)C1=CC(=CC=C1O)C2=C(F)C=C(F)C=C2,water,298,-4.61,mol/L
ClC1=CC(=CC(=C1)C2=CC(=CC(=C2)Cl)Cl)Cl,water,298,-8.38,mol/L
CC1CC2C3CCC4=CC(=O)C=CC4(C)C3(F)C(O)CC2(C)C1(O)C(=O)COC(C)=O,water,298,-4.9,mol/L
ClC1=CC2=C(OC3=C(O2)C=CC=C3)C=C1,water,298,-5.84,mol/L
CC(C(O)=O)C1=CC(=CC=C1)C(=O)C2=CC=CC=C2,water,298,-2.04,mol/L
ClC1=CC(=C(Cl)C=C1)C2=CC=C(Cl)C(=C2)Cl,water,298,-6.85,mol/L
COC(=O)C1(CCCC1)[S](=O)(=O)C2=CC=C(Br)C=C2,water,298,-4.01,mol/L
ClC1=CC(=C(C=C1)C2=CC=C(Cl)C=C2Cl)Cl,water,298,-6.51,mol/L
ClC1=CC=C(C=C1)C2=C(Cl)C=C(Cl)C=C2Cl,water,298,-6.51,mol/L
COC(=O)C1=C(Cl)C(=C(C(=C1Cl)Cl)C(=O)OC)Cl,water,298,-5.82,mol/L
ClC1=CC(=C(C=C1)C2=CC(=CC=C2Cl)Cl)Cl,water,298,-7.26,mol/L
ClC1=CC=CC2=C1OC3=C(O2)C=CC=C3,water,298,-5.72,mol/L
ClC1=CC=CC=C1C2=C(Cl)C=C(Cl)C(=C2)Cl,water,298,-7.25,mol/L
ClC1=CC(=C(Cl)C=C1)C2=CC(=CC=C2Cl)Cl,water,298,-7.04,mol/L
CCOC(=O)NCCOC1=CC=C(OC2=CC=CC=C2)C=C1,water,298,-4.72,mol/L
ClC1=CC2=C(OC3=C2C=C(Cl)C=C3)C=C1,water,298,-7.21,mol/L
ClC1=CC(=C(Cl)C(=C1Cl)Cl)C2=CC=CC=C2,water,298,-7.16,mol/L
ClC1=C(Cl)C(=C(C=C1)C2=CC=CC=C2Cl)Cl,water,298,-6.83,mol/L
ClC1=CC=C(Cl)C(=C1)C2=C(Cl)C(=CC=C2)Cl,water,298,-6.47,mol/L
CNCCCC12CCC(C3=C1C=CC=C3)C4=C2C=CC=C4,water,298,-4.69,mol/L
CC(C)OC(=O)C1(CC1)[S](=O)(=O)C2=CC=C(C=C2)[N+]([O-])=O,water,298,-4.26,mol/L
O=C1C2=C(C=CC=C2)C(=O)C3=C1C=CC=C3,water,298,-5.19,mol/L
ClC1=CC=CC(=C1Cl)C2=CC=CC(=C2Cl)Cl,water,298,-7.28,mol/L
CCN(CC)C(=O)\C(=C/C1=CC(=C(O)C(=C1)[N+]([O-])=O)O)C#N,water,298,-4.26,mol/L
CCCN(CCC)[S](=O)(=O)C1=CC=C(C=C1)C(O)=O,water,298,-5.68,mol/L
ClC(Cl)C(C1=CC=C(Cl)C=C1)C2=CC=C(Cl)C=C2,water,298,-7.2,mol/L
OC(=O)C1=C(C=CC=C1)C2=C(C=CC=C2)C(O)=O,water,298,-2.28,mol/L
[O-][N+](=O)C1=C(C=C(C(=O)NC2CC2)C(=C1)[N+]([O-])=O)N3CC3,water,298,-3.39,mol/L
CC1=NC2=C(C=C(Cl)C=C2)[S](=O)(=O)N1,water,298,-3.36,mol/L
ClC1=CC(=C(Cl)C=C1)C2=C(Cl)C=CC=C2Cl,water,298,-6.79,mol/L
ClC1=CC(=C(Cl)C(=C1Cl)C2=CC=CC=C2)Cl,water,298,-7.25,mol/L
O=C1NC(=O)C(N1)(C2=CC=CC=C2)C3=CC=CC=C3,water,298,-4.04,mol/L
C1C2=C(C=CC=C2)C3=C1C=C4C=CC=CC4=C3,water,298,-8.03,mol/L
ClC1=C(C(=CC=C1)Cl)C2=C(Cl)C=CC=C2Cl,water,298,-7.21,mol/L
COC(=O)C1(CCCCC1)[S](=O)(=O)C2=CC=C(Br)C=C2,water,298,-4.48,mol/L
CO[P](=S)(OC)OC1=CC(=C(Cl)C=C1Cl)Cl,water,298,-4.1,mol/L
CN(C)C(=O)NC1=CC=C(OC2=CC=C(Cl)C=C2)C=C1,water,298,-4.89,mol/L
OC1=C(Br)C(=C(Br)C(=C1Br)Br)Br,water,298,-6.6,mol/L
CC(C)(C)C(O)\C(=C/C1=CC=C(Cl)C=C1)[N]2C=NC=N2,water,298,-4.54,mol/L
CC(C)(C)C(=O)OCC1OC(CC1O)N2C=C(I)C(=O)NC2=O,water,298,-3.36,mol/L
C[S](=O)(=O)C1=CC=C(C=C1)C(O)C(CO)NC(=O)C(Cl)Cl,water,298,-2.15,mol/L
CC(C(O)=O)C1=CC=C(C=C1)C(=O)C2=CC=CS2,water,298,-2.0,mol/L
C1C2=C(C=CC=C2)C3=C1C4=C(C=CC=C4)C=C3,water,298,-6.68,mol/L
CN1CCN=C(C2=CC=CC=C2)C3=C1C=CC(=C3)Cl,water,298,-4.43,mol/L
ClC(Cl)(Cl)SN1C(=O)C2=CC=CC=C2C1=O,water,298,-5.57,mol/L
NC(=O)N1C2=C(C=CC=C2)C=CC3=C1C=CC=C3,water,298,-3.29,mol/L
CO[P](=S)(OC)OC1=C(Cl)C=C(Cl)C(=N1)Cl,water,298,-4.91,mol/L
CCO[P](=O)(NC(C)C)OC1=CC(=C(SC)C=C1)C,water,298,-2.83,mol/L
CCCCN(CC)C1=C(C=C(C=C1[N+]([O-])=O)C(F)(F)F)[N+]([O-])=O,water,298,-3.68,mol/L
OC(=O)C1=CC=CC=C1NC2=CC(=CC=C2)C(F)(F)F,water,298,-4.4,mol/L
CCCN(CCC)C1=C(C=C(C=C1[N+]([O-])=O)C(F)(F)F)[N+]([O-])=O,water,298,-6.05,mol/L
CC(C)(C)C(=O)C(OC1=CC=C(Cl)C=C1)[N]2C=NC=N2,water,298,-3.61,mol/L
CC(C)OC(=O)C1(CCC1)[S](=O)(=O)C2=CC=C(C=C2)[N+]([O-])=O,water,298,-3.76,mol/L
NC1=CC=C(C=C1)[S](=O)(=O)NC2=NC=CC=C2,water,298,-2.97,mol/L
CC(C)OC(=O)C1(CCCCCC1)[S](=O)(=O)C2=CC=C(Cl)C=C2,water,298,-5.52,mol/L
CC(CN(C)C)CN1C2=C(CCC3=C1C=CC=C3)C=CC=C2,water,298,-4.79,mol/L
N[S](=O)(=O)C1=CC2=C(S1)[S](=O)CCC2O,water,298,-1.35,mol/L
CCN(CC(C)=C)C1=C(C=C(C=C1[N+]([O-])=O)C(F)(F)F)[N+]([O-])=O,water,298,-6.05,mol/L
CCCC(=O)OCC1OC(CC1O)N2C=C(I)C(=O)NC2=O,water,298,-2.84,mol/L
OC(=O)C1=CC=CN=C1NC2=CC=CC(=C2)C(F)(F)F,water,298,-3.69,mol/L
CC1=CC(=NO1)N[S](=O)(=O)C2=CC=C(N)C=C2,water,298,-2.32,mol/L
NC1=CC=C(C=C1)[S](=O)(=O)NC2=NC=CC=N2,water,298,-2.76,mol/L
CC(C)C(=O)OCC1OC(CC1O)N2C=C(I)C(=O)NC2=O,water,298,-2.76,mol/L
CCC(=O)N(C1CCN(CC1)CCC2=CC=CC=C2)C3=CC=CC=C3,water,298,-3.82,mol/L
CC12CCC3C(CCC4=CC(=O)CCC34C)C1CCC2OC(=O)C5=CC=CC=C5,water,298,-4.48,mol/L
CO[P](=S)(OC)SCN1C(=O)C2=C(C=CC=C2)C1=O,water,298,-4.12,mol/L
CCN(CC)C1=C(C=C(C(=C1[N+]([O-])=O)N)C(F)(F)F)[N+]([O-])=O,water,298,-5.47,mol/L
NC1=CC=C(C=C1)[S](=O)(=O)C2=CC=C(N)C=C2,water,298,-3.25,mol/L
ClC1=CC=C(N[S](=O)(=O)C2=CC=CC=C2)C=C1,water,298,-4.03,mol/L
COC(=O)C1CC1[S](=O)(=O)C2=CC=C(C=C2)[N+]([O-])=O,water,298,-3.38,mol/L
CC(C)C(O)(C1=CC=C(OC(F)(F)F)C=C1)C2=CN=CN=C2,water,298,-3.38,mol/L
CC12CCC3C(CCC4=CC(=O)CCC34C)C1CCC2OC(=O)CCC5=CC=CC=C5,water,298,-5.27,mol/L
C1=CC2=C(C=C1)C3=C4C(=CC=C3)C=CC=C24,water,298,-5.93,mol/L
C1=CC2=CC=C3C=CC=C4C=CC(=C1)C2=C34,water,298,-6.06,mol/L
CC(C)=CC1C(C(=O)OCC2=COC(=C2)CC3=CC=CC=C3)C1(C)C,water,298,-6.95,mol/L
CCCCNC(=O)[N]1C(=NC2=C1C=CC=C2)NC(=O)OC,water,298,-4.86,mol/L
O=C1CC2OCC=C3CN4CCC56C4CC3C2C5N1C7=C6C=CC=C7,water,298,-3.33,mol/L
ClC1=CC=C(C=C1)C(=C(Cl)Cl)C2=CC=C(Cl)C=C2,water,298,-8.42,mol/L
CC12CCC3C(CCC4=CC(=O)CCC34C)C1CCC2OC(=O)CCCC5=CC=CC=C5,water,298,-5.43,mol/L
CCCCC(=O)OCC1OC(CC1O)N2C=C(I)C(=O)NC2=O,water,298,-3.4,mol/L
ClC1=CC=C(C=C1Cl)C2=CC(=C(Cl)C(=C2)Cl)Cl,water,298,-8.39,mol/L
CCCCC1=C(O[S](=O)(=O)N(C)C)N=C(NCC)N=C1C,water,298,-4.16,mol/L
ClC1=CC=CC=C1N[S](=O)(=O)C2=CC=CC=C2,water,298,-4.32,mol/L
CCN1CCCC1CNC(=O)C2=C(OC)C=CC(=C2)[S](N)(=O)=O,water,298,-2.88,mol/L
ClC1=CC=C(C=C1Cl)C2=C(Cl)C=C(Cl)C(=C2)Cl,water,298,-8.2,mol/L
CCN1C=C(C(O)=O)C(=O)C2=C1C=C3OCOC3=C2,water,298,-4.91,mol/L
ClC1=CC(=C(C=C1)C2=CC(=C(Cl)C(=C2)Cl)Cl)Cl,water,298,-8.55,mol/L
ClC1=CC=C(C=C1Cl)C2=C(Cl)C(=C(Cl)C=C2)Cl,water,298,-8.24,mol/L
CC12CCC3C(CCC4=CC(=O)CCC34C)C1CCC2OC(=O)CC5=CC=CC=C5,water,298,-4.66,mol/L
CCCN(CC1CC1)C2=C(C=C(C=C2[N+]([O-])=O)C(F)(F)F)[N+]([O-])=O,water,298,-6.54,mol/L
OC(=O)CC1=CC=CC=C1OC2=C(Cl)C=C(Cl)C=C2,water,298,-4.86,mol/L
ClC1=CC=C(C=C1)C2=C(Cl)C(=C(Cl)C(=C2)Cl)Cl,water,298,-8.09,mol/L
OC(=O)CC1=C(NC2=C(Cl)C=CC=C2Cl)C=CC=C1,water,298,-3.8,mol/L
ClC1=CC=C(C(=C1)Cl)C2=C(Cl)C=C(Cl)C(=C2)Cl,water,298,-7.95,mol/L
ClC1=CC=C(C=C1)C(=C(Cl)Cl)C2=C(Cl)C=CC=C2,water,298,-6.36,mol/L
ClC1=CC2=C(OC3=C(O2)C=CC(=C3)Cl)C=C1,water,298,-7.82,mol/L
ClC1=CC2=C(OC3=C(O2)C=C(Cl)C=C3)C=C1,water,298,-7.18,mol/L
ClC1=NC=CC=C1N[S](=O)(=O)C2=CC=CC=C2,water,298,-3.76,mol/L
BrC1=C(Br)C(=C(Br)C(=C1Br)Br)Br,water,298,-9.74,mol/L
COC1=CC=C2N=CC=C(C(O)C3CC4CCN3CC4C=C)C2=C1,water,298,-2.79,mol/L
ClC1=CC=CN=C1N[S](=O)(=O)C2=CC=CC=C2,water,298,-3.17,mol/L
COC1=CC(=CC(=C1OC)OC)CC2=CN=C(N)N=C2N,water,298,-2.95,mol/L
COC12C(COC(N)=O)C3=C(N1CC4NC24)C(=O)C(=C(N)C3=O)C,water,298,-2.56,mol/L
ClC1=CC=C(C(=C1)Cl)C2=C(Cl)C(=C(Cl)C=C2)Cl,water,298,-7.62,mol/L
CCCCC(=O)OC1(C(C)CC2C3CCC4=CC(=O)C=CC4(C)C3(F)C(O)CC12C)C(=O)CO,water,298,-4.71,mol/L
ClC1=CC=C(Cl)C(=C1)C2=C(Cl)C=C(Cl)C(=C2)Cl,water,298,-7.89,mol/L
ClC1=CC2=C(OC3=C(O2)C=CC=C3)C=C1Cl,water,298,-7.23,mol/L
ClC1=CC=C(C=C1Cl)C2=C(Cl)C(=CC=C2Cl)Cl,water,298,-7.65,mol/L
NC1=CC=C(C=C1)[S](=O)(=O)NC2=NC=CS2,water,298,-1.9,mol/L
COC1=CC2=C(C=CN=C2C=C1)C(O)C3CN4CCC3C(C4)C=C,water,298,-3.36,mol/L
ClC1=CC(=C(Cl)C=C1)C2=C(Cl)C(=C(Cl)C=C2)Cl,water,298,-7.91,mol/L
N[S](=O)(=O)C1=CC2=C(S1)[S](=O)(=O)CCC2,water,298,-2.68,mol/L
CCOC1=CC2=C(C=C1)N=C(S2)[S](N)(=O)=O,water,298,-4.03,mol/L
ClC1=CC=C(Cl)C(=C1)C2=C(Cl)C(=CC(=C2)Cl)Cl,water,298,-7.82,mol/L
COCC(=O)N(N1CCOC1=O)C2=C(C)C=CC=C2C,water,298,-1.91,mol/L
ClC1=CC=CC=C1C2=C(Cl)C(=C(Cl)C(=C2)Cl)Cl,water,298,-7.21,mol/L
CC(C)(C)C1CCC(CC1)CC2=C(O)C(=O)C3=C(C=CC=C3)C2=O,water,298,-7.04,mol/L
NC(N)=NC1=NC(=CS1)CSCCC(N)=N[S](N)(=O)=O,water,298,-2.32,mol/L
ClC1=CC=C(C=C1)C(C2=CC=C(Cl)C=C2)C(Cl)(Cl)Cl,water,298,-7.25,mol/L
OC1(CCN(CCCC(=O)C2=CC=C(F)C=C2)CC1)C3=CC=C(Cl)C=C3,water,298,-4.43,mol/L
COC(=O)NC1=CC(=CC=C1)OC(=O)NC2=CC(=CC=C2)C,water,298,-4.81,mol/L
CC1=NOC(=C1C)N[S](=O)(=O)C2=CC=C(N)C=C2,water,298,-3.31,mol/L
CCC1=N[N](C)C(=C1Cl)C(=O)NCC2=CC=C(C=C2)C(C)(C)C,water,298,-5.11,mol/L
ClC1=CC=CC=C1C2=C(Cl)C(=C(Cl)C=C2Cl)Cl,water,298,-7.43,mol/L
FC1=CC=CC(=C1C(=O)NC(=O)NC2=CC=C(Cl)C=C2)F,water,298,-6.59,mol/L
CCC1=CC=C(N[S](=O)(=O)C2=CC=C(N)C=C2)C=C1,water,298,-4.52,mol/L
ClC1=C(Cl)C(=CC=C1)C2=C(Cl)C(=CC=C2Cl)Cl,water,298,-6.78,mol/L
ClC1=C(Cl)C(=C(C2=CC=CC=C2)C(=C1Cl)Cl)Cl,water,298,-7.92,mol/L
ClC1=CC(=C(C(=C1)Cl)C2=C(Cl)C=CC=C2Cl)Cl,water,298,-7.32,mol/L
CC1=CC=NC(=N1)N[S](=O)(=O)C2=CC=C(N)C=C2,water,298,-3.1,mol/L
CNC1=C(Cl)C(=O)N(N=C1)C2=CC(=CC=C2)C(F)(F)F,water,298,-3.88,mol/L
NC1=CC=C(C=C1)[S](=O)(=O)NC2=CC=C(Cl)C=C2,water,298,-4.13,mol/L
CCCN(CCC)C1=C(C(=C(C=C1[N+]([O-])=O)C(F)(F)F)N)[N+]([O-])=O,water,298,-7.07,mol/L
CCCCOC1=NC2=C(C=CC=C2)C(=C1)C(=O)NCCN(CC)CC,water,298,-2.82,mol/L
CC(OC1=C(Cl)C(=C(Cl)C=C1)C)C(=O)NC2=CC=CC=C2,water,298,-7.01,mol/L
COC1=CC=C(N[S](=O)(=O)C2=CC=C(N)C=C2)C=C1,water,298,-4.23,mol/L
NC1=CC=C(C=C1)[S](=O)(=O)NC2=CC=C(C=C2)C#N,water,298,-3.6,mol/L
CCO[P](=S)(OCC)OC1=C(Cl)C=C(Cl)C(=N1)Cl,water,298,-5.67,mol/L
CCC(=O)OC(CC1=CC=CC=C1)(C(C)CN(C)C)C2=CC=CC=C2,water,298,-2.61,mol/L
COC1=CC=C(C=C1)C(C2=CC=C(OC)C=C2)C(Cl)(Cl)Cl,water,298,-6.84,mol/L
CC(C)N(CCC(C(N)=O)(C1=CC=CC=C1)C2=NC=CC=C2)C(C)C,water,298,-1.7,mol/L
OC(C1=CC=CC=C1)(C2=CC=CC=C2)C3=CC=CC=C3,water,298,-2.26,mol/L