Solute,Solvent,Temperature_K,Solubility,Units
OCC1OC2OC3C(O)C(O)C(OC3CO)OC4C(O)C(O)C(OC4CO)OC5C(O)C(O)C(OC5CO)OC6C(O)C(O)C(OC6CO)OC7C(O)C(O)C(OC7CO)OC1C(O)C2O,water,298,-0.945468585,mol/L
CCC(CO)(CO)COCC=C,water,298,-0.199755177,mol/L
CSCCC(O)C#N,water,298,-0.07654115,mol/L
CC(C)=CC=O,water,298,0.116503747,mol/L
[Li+].[OH-],water,298,0.662123436,mol/L
CC(C)CC(C)(O)C#C,water,298,-1.036597924,mol/L
O=CC1CCC=CC1,water,298,-0.977550168,mol/L
O=CC1CCC=CC1,water,298,-0.981310317,mol/L
O=C1CC(=O)NC(=O)N1,water,298,-1.048661639,mol/L
O=C1CC(=O)NC(=O)N1,water,298,-1.048699567,mol/L
OCCCCCCCl,water,298,-1.082442195,mol/L
N#CCCCCCCC#N,water,298,-1.081092287,mol/L
CC(C)C1(C)N=C(NC1=O)c2ncccc2C(O)=O,water,298,-1.364029386,mol/L
CC(C)C1(C)N=C(NC1=O)c2ncccc2C(O)=O,water,298,-1.36510685,mol/L
CC\C=C/C#N,water,298,-0.859899212,mol/L
[Mn++].CCCCC(CC)C(O)=O,water,298,-1.253861693,mol/L
CCC(C)(C)OC,water,298,-0.967960462,mol/L
C1C[NH+]=C(N1)c2ccccc2,water,298,-1.126518075,mol/L
OCC1CCC2C3CC(CC3CO)C12,water,298,-1.25150549,mol/L
O[C@@H](C(O)=O)c1ccccc1,water,298,-0.141666762,mol/L
COC1OC(CO)C(O)C(O)C1O,water,298,0.745212549,mol/L
[Na+].OC([O-])=O,water,298,0.112318589,mol/L
[Na+].[Na+].OC(=O)CN(CCN(CC(O)=O)CC([O-])=O)CC([O-])=O,water,298,-0.493184288,mol/L
OCC#CCO.ClCC1CO1,water,298,0.777871543,mol/L
CC1CCOC1,water,298,0.090131249,mol/L
[Cr+3].[O-][N+]([O-])=O.[O-][N+]([O-])=O.[O-][N+]([O-])=O,water,298,0.64563055,mol/L
CC(O)SC=C,water,298,0.005493119,mol/L
[Na+].[Na+].Nc1ccc(N=Nc2ccc(cc2)N=Nc3c(N)c4C(=O)C(=N/Nc5ccccc5)/C(=Cc4cc3[S]([O-])(=O)=O)[S]([O-])(=O)=O)c(N)c1,water,298,-0.827397585,mol/L
[Na+].[Na+].OC(=O)CN(CCN(CC(O)=O)CC([O-])=O)CC([O-])=O,water,298,-0.505418744,mol/L
C[N+]([O-])=O,water,298,0.233501766,mol/L
[Sm+3].[O-][N+]([O-])=O.[O-][N+]([O-])=O.[O-][N+]([O-])=O,water,298,0.486017387,mol/L
[Al+3].[O-]C=O.[O-]C=O.[O-]C=O,water,298,-0.195082934,mol/L
CCC(C)(O)C#C,water,298,0.016731992,mol/L
NNC(=O)CCCCC(=O)NN,water,298,-0.232457951,mol/L
OC(C(O)C(O)=O)C(O)=O,water,298,0.823659817,mol/L
COCCOC,water,298,1.045169179,mol/L
C1COCCO1,water,298,1.054994515,mol/L
CC(O)CNCC(C)O,water,298,0.87552512,mol/L
CN1CCCC1=O,water,298,1.003781751,mol/L
CNC(N)=O,water,298,1.130281439,mol/L
OCCSCCO,water,298,0.91296789,mol/L
O.OC(=O)CC(O)(CC(O)=O)C(O)=O,water,298,0.677495406,mol/L
OCCOCCO,water,298,0.974198666,mol/L
CC(=C)C(=O)OCCN1CCNC1=O,water,298,0.702848146,mol/L
[H+].[Cl-].CN(C)C(C)(C)CO,water,298,0.813458956,mol/L
CN(C)CCOC(=O)C(C)=C,water,298,0.803511545,mol/L
NCCNCCO,water,298,0.982328216,mol/L
CN(CCO)CCO,water,298,0.923854927,mol/L
OCCOCCOCCO,water,298,0.823405251,mol/L
OCCN(CCO)CCO,water,298,0.826260286,mol/L
OCCCl,water,298,1.094128597,mol/L
OC(=O)CC#N,water,298,1.07026441,mol/L
OCCOC(=O)C=C,water,298,0.935107933,mol/L
CC(O)C#N,water,298,1.148258691,mol/L
CC(C)(O)C#C,water,298,1.075111062,mol/L
CC(C)(C)N,water,298,1.135850982,mol/L
CC(C)(C)O,water,298,1.130047012,mol/L
Cc1ccccn1,water,298,1.03091506,mol/L
OCCS,water,298,1.107148825,mol/L
CN(C)CCCO,water,298,0.986467618,mol/L
CO[S]([O-])(=O)=O.C[n+]1ccn(C=C)c1,water,298,0.657084083,mol/L
Oc1ccc(cc1)[S](O)(=O)=O,water,298,0.759009194,mol/L
OCCCCOC(=O)C=C,water,298,0.841125102,mol/L
CN(C)C(C)=O,water,298,1.059872163,mol/L
CC(NC=O)C#N,water,298,1.008308858,mol/L
CCNCC,water,298,1.135850982,mol/L
CNC(C)=O,water,298,1.13611233,mol/L
C1CN1,water,298,1.365835212,mol/L
CCC(O)CO,water,298,1.045169179,mol/L
C[C@@H](O)[C@H](C)O,water,298,1.045169179,mol/L
NC1CCCCC1,water,298,1.003589033,mol/L
NC1CC1,water,298,1.243394316,mol/L
ClC(=O)C(Cl)=O,water,298,0.896449406,mol/L
NC=O,water,298,1.346391976,mol/L
C[S](O)(=O)=O,water,298,1.017244979,mol/L
COC(=O)COCO,water,298,0.920442528,mol/L
CNN,water,298,1.336553508,mol/L
O=C1CCCCO1,water,298,0.999492173,mol/L
CCCC(O)CO,water,298,0.982344896,mol/L
OCCCCCO,water,298,0.982344896,mol/L
[K+].O[C@H]([C@@H](O)C([O-])=O)C(O)=O,water,298,0.725435767,mol/L
[Na+].[K+].O[C@H]([C@@H](O)C([O-])=O)C([O-])=O,water,298,0.677454073,mol/L
OC(=O)C=C,water,298,1.142287662,mol/L
CC(N)CN,water,298,1.130023576,mol/L
CCC(O)=O,water,298,1.130304889,mol/L
[Na+].[O-]C(=O)C(Cl)(Cl)Cl,water,298,0.731962893,mol/L
[Na+].[Na+].[Na+].[Na+].CC(O)CN(CC(C)O)c1nc(Nc2ccc(cc2)[S]([O-])(=O)=O)nc(Nc3ccc(/C=C/c4ccc(Nc5nc(Nc6ccc(cc6)[S]([O-])(=O)=O)nc(n5)N(CC(C)O)CC(C)O)cc4[S]([O-])(=O)=O)c(c3)[S]([O-])(=O)=O)n1,water,298,-0.086773993,mol/L
[I-].CCCC[N+](C)(CCCC)CCCC,water,298,0.485061956,mol/L
OC(=O)C(F)(F)F,water,298,0.943011346,mol/L
O=[S]1(=O)CCCO1,water,298,-0.086875694,mol/L
OC(=O)CCCC(O)=O,water,298,-0.120952129,mol/L
[Na+].[Na+].Nc1ccc(\C=C\c2ccc(N)cc2[S]([O-])(=O)=O)c(c1)[S]([O-])(=O)=O,water,298,-0.617390402,mol/L
[Na+].CCCCCCCCCCCCO[S]([O-])(=O)=O,water,298,-0.459972667,mol/L
[Na+].[Na+].OC(=O)CN(CCN(CC(O)=O)CC([O-])=O)CC([O-])=O,water,298,-0.526608043,mol/L
[Y+3].CC([O-])=O.CC([O-])=O.CC([O-])=O,water,298,-0.424943674,mol/L
Nc1cccc(c1)[S](O)(=O)=O,water,298,-1.20510658,mol/L
COc1ccc2nccc(C(O)C3CC4CCN3CC4C=C)c2c1.O[S](O)(=O)=O,water,298,-1.592406042,mol/L
OC(=O)c1cc(Br)nn1c2ncccc2Cl,water,298,-1.448934642,mol/L
CCC(C)(C)OC,water,298,-0.979563677,mol/L
O[P](O)(=O)c1ccccc1,water,298,-1.174098708,mol/L
ClCCOCCCl,water,298,-1.138342178,mol/L
CCC(C)(C)OC,water,298,-0.992319808,mol/L
ClCCOCCCl,water,298,-1.146094633,mol/L
ClCCOCCCl,water,298,-1.150624361,mol/L
CC(=O)c1ccc(O)cc1,water,298,-1.134017646,mol/L
CC(=O)C(O)c1ccccc1,water,298,-1.176603424,mol/L
Cc1cccc(N)c1,water,298,-1.030016494,mol/L
N.N.OC(O)=O,water,298,-0.982660114,mol/L
COC(OC)OC,water,298,-1.025801334,mol/L
OCC(CBr)(CBr)CBr,water,298,-2.226109519,mol/L
Nc1cc(Cl)c(Cl)cc1[S](O)(=O)=O,water,298,-2.105210692,mol/L
[Na+].[Na+].[O-][S](=O)(=O)c1cc(Nc2nc(Nc3ccccc3)nc(n2)N4CCOCC4)ccc1/C=C/c5ccc(Nc6nc(Nc7ccccc7)nc(n6)N8CCOCC8)cc5[S]([O-])(=O)=O,water,298,-2.687357143,mol/L
[O-][N+](=O)c1ccccc1,water,298,-1.811543258,mol/L
COC(=O)c1ccc(O)cc1,water,298,-1.908111253,mol/L
[nH]1ccnc1c2ccccc2,water,298,-1.88938304,mol/L
[Sr].OC(C(O)C(O)=O)C(O)=O,water,298,-2.1065272,mol/L
CCOc1nc(NC)nc(NC(=O)N[S](=O)(=O)c2ccccc2C(=O)OC)n1,water,298,-2.344080854,mol/L
OCCNc1ccccc1[N+]([O-])=O,water,298,-1.993326586,mol/L
Cc1oncc1C([O-])=O,water,298,-1.05536111,mol/L
[O-][N+](=O)OCC(CO[N+]([O-])=O)O[N+]([O-])=O,water,298,-2.100915943,mol/L
CC1CC=C(C)C(=O)C1C,water,298,-1.885266962,mol/L
Clc1ccccc1C=O,water,298,-1.89261705,mol/L
[Mn++].CCCCC(CC)C(O)=O,water,298,-2.043912167,mol/L
CC(C)COC(=O)C=C,water,298,-1.852517268,mol/L
CC1CC(O)CC(C)(C)C1,water,298,-1.897755345,mol/L
CCCCC(CC)COCC(O)CO,water,298,-2.055017119,mol/L
NC(=O)c1ccc(Cl)c(N)c1,water,298,-1.976703976,mol/L
COc1cc(N[S](=O)(=O)c2ccccc2)c3C(=O)c4ccccc4C(=O)c3c1N,water,298,-2.355850446,mol/L
CCCCOCc1ccc(O)c(OC)c1,water,298,-2.06993048,mol/L
C1OC1COc2cccc(c2)N(CC3CO3)CC4CO4,water,298,-2.192561189,mol/L
c1ccccc1,water,298,-1.642308875,mol/L
CC1(C)CC(CC(C)(C)N1)NCCCCCCNC2CC(C)(C)NC(C)(C)C2,water,298,-2.350745656,mol/L
CCOC(=O)CC(C)C,water,298,-1.869054952,mol/L
[OH-].[OH-].[Ca++],water,298,-1.631725215,mol/L
COc1ccccc1,water,298,-1.800990255,mol/L
CC(C)CC(C)(O)C#CC(C)(O)CC(C)C,water,298,-2.124350764,mol/L
CCCCOC(=O)C=C,water,298,-1.877340851,mol/L
O=C1NSc2ccccc12,water,298,-1.950353365,mol/L
CCCCOCc1ccc(O)c(OC)c1,water,298,-2.094896806,mol/L
[H+].[Cl-].Nc1cc(Cl)ccc1Cl,water,298,-2.07500028,mol/L
[Na+].[Na+].CCCCCCCCCCCC(=O)O[C@@H](C)C[S]([O-])(=O)=O.CCCCCCCCCCCC(=O)O[C@H](C)C[S]([O-])(=O)=O,water,298,-2.618046836,mol/L
O=C1NSc2ccccc12,water,298,-1.961775994,mol/L
Nc1scc(CC(O)=O)n1,water,298,-1.981673118,mol/L
N#CC1(CC[NH+](CC1)Cc2ccccc2)[NH+]3CCCCC3,water,298,-2.245992211,mol/L
CCN(CC)c1cccc(O)c1,water,298,-2.011278797,mol/L
[O-][N+](=O)OCC(CO[N+]([O-])=O)O[N+]([O-])=O,water,298,-2.152068465,mol/L
Cc1ccccc1[S](N)(=O)=O,water,298,-2.029437047,mol/L
ClCC(Cl)C=C,water,298,-1.892783082,mol/L
COC(=O)C=C1CCCC1,water,298,-1.942572269,mol/L
CC(CCl)O[P](=O)(OC(C)CCl)OC(C)CCl,water,298,-2.31118679,mol/L
NCC(F)F,water,298,0.535211409,mol/L
C[P](=O)(Oc1ccccc1)Oc2ccccc2,water,298,-2.201708674,mol/L
C/C=C/C=C/C(O)=O,water,298,-1.856589478,mol/L
NCC(F)F,water,298,0.532075695,mol/L
Fc1ccccc1,water,298,-1.792409766,mol/L
[Na+].CCCCCCCCCCCCCCCCCO[S]([O-])(=O)=O,water,298,-2.366992667,mol/L
CC1(C)C2CCC1(C)C(=O)C2,water,298,-1.99576159,mol/L
Fc1ccccc1,water,298,-1.801360989,mol/L
NCC(F)F,water,298,0.522530377,mol/L
NC(Nc1ccccc1)=Nc2ccccc2,water,298,-2.148742462,mol/L
[O-][N+](=O)OCC(CO[N+]([O-])=O)O[N+]([O-])=O,water,298,-2.180097189,mol/L
CC(=O)OCC1OC(OC(C)=O)C(OC(C)=O)C(OC(C)=O)C1OC(C)=O,water,298,-2.415352911,mol/L
CC(C)(CO)Cc1ccccc1,water,298,-2.042313822,mol/L
C1OC1c2ccccc2,water,298,-1.906541121,mol/L
COC(=O)C=C1CCCC1,water,298,-1.973505983,mol/L
CC(C)(C)OOC(=O)C(C)(C)C,water,298,-2.067961594,mol/L
CCO[Si](OCC)(OCC)OCC,water,298,-2.145565545,mol/L
CC\C=C/CC1=C(C)CCC1=O,water,298,-2.045238375,mol/L
Clc1ccccc1C=O,water,298,-1.980572221,mol/L
CCC(C)c1ccccc1O,water,298,-2.012377793,mol/L
Oc1cccc2ccccc12,water,298,-2.003547898,mol/L
Cc1ccc(C)c(O)c1C,water,298,-1.981869631,mol/L
CCCCCCCCN(CCO)CCO,water,298,-2.191037603,mol/L
Cc1ccc(C)c(O)c1C,water,298,-1.98802994,mol/L
CCCCC(CC)C(O)=O,water,298,-2.012879387,mol/L
O=Cc1ccc2OCOc2c1,water,298,-2.030348127,mol/L
Cc1cc(O)ccc1N,water,298,-1.944324013,mol/L
OC(=O)c1cc(cc(c1)[N+]([O-])=O)C(O)=O,water,298,-2.178419855,mol/L
CCCCOC(=O)C=C,water,298,-1.961661737,mol/L
[Na+].Cc1ccc(cc1)[S](=O)(=O)Oc2ccc(Nc3cc(c(N)c4C(=O)c5ccccc5C(=O)c34)[S]([O-])(=O)=O)cc2,water,298,-2.622198475,mol/L
CCOC(=O)N[S](=O)(=O)c1ccc(C)cc1,water,298,-2.243098748,mol/L
[Ca++].CCCCCCCCC([O-])=O.CCCCCCCCC([O-])=O,water,298,-2.412949573,mol/L
CCOC(OCC)OCC,water,298,-2.040520296,mol/L
[Li+].[F-],water,298,-1.276265442,mol/L
[Li+].[F-],water,298,-1.290101588,mol/L
CCCCCCCCC(=O)N(C)C,water,298,-2.144049559,mol/L
Cc1cc(ccc1N=C=O)c2ccc(N=C=O)c(C)c2,water,298,-2.308127519,mol/L
OC(=O)CN(CC(O)=O)CC(O)=O,water,298,-2.167405957,mol/L
Nc1ccccc1[N+]([O-])=O,water,298,-2.026332083,mol/L
CC(=O)\C=C\c1ccccc1,water,298,-2.050971343,mol/L
[Li+].[F-],water,298,-1.310009877,mol/L
Oc1ccc(cc1)C2NC(=O)NC2=O,water,298,-2.17310492,mol/L
[Na+].CCCCCCCCCCCC(=O)OCC[S]([O-])(=O)=O,water,298,-2.408479245,mol/L
O=C1NSc2ccccc12,water,298,-2.069607204,mol/L
OC(=O)CN(CC(O)=O)CC(O)=O,water,298,-2.17413934,mol/L
Nc1ccc(NCCO)c(c1)[N+]([O-])=O,water,298,-2.191089976,mol/L
CC(O)CC(C)(C)c1ccccc1,water,298,-2.147286724,mol/L
CCCCOC(=O)C=C,water,298,-2.01087976,mol/L
Oc1cccc2ccccc12,water,298,-2.061973923,mol/L
Nc1cccc(Cl)c1Cl,water,298,-2.130384701,mol/L
Cc1ccc(Cl)cc1N,water,298,-2.071885074,mol/L
CC(=O)N(CCN(C(C)=O)C(C)=O)C(C)=O,water,298,-2.279225735,mol/L
CC(C)C1CCC(C)CC12OCC(CO)O2,water,298,-2.279385535,mol/L
[Na+].[Na+].CC(C)(c1ccc(O[S](=O)(=O)c2cccc(NNC3=C4C(=O)C=C(C=C4C=CC3=N)[S](O)(=O)=O)c2)cc1)c5ccc(O[S](=O)(=O)c6cccc(NNC7=C8C(=O)C=C(C=C8C=CC7=N)[S](O)(=O)=O)c6)cc5,water,298,-2.956287317,mol/L
CCOC(=O)Cc1ccccc1,water,298,-2.136202486,mol/L
[N-]=[N+]=O,water,298,-1.564399726,mol/L
[Na+].Cc1cc(Nc2cc(c(N)c3C(=O)c4ccccc4C(=O)c23)[S]([O-])(=O)=O)cc(c1C)[S](=O)(=O)NCCO,water,298,-2.674843542,mol/L
O=C1NSc2ccccc12,water,298,-2.101791887,mol/L
CCCCc1[nH]c(Cl)c(C=O)n1,water,298,-2.199127372,mol/L
CC\C=C/CCOC(C)=O,water,298,-2.095988637,mol/L
Oc1cccc2ccccc12,water,298,-2.113560957,mol/L
O=C1NSc2ccccc12,water,298,-2.134983307,mol/L
CC\C=C/CCOC(C)=O,water,298,-2.111500803,mol/L
ClC=C(Cl)Cl,water,298,-2.077166322,mol/L
CCCCN1C(=O)C=C(C)C(=C1O)C#N,water,298,-2.272990744,mol/L
CCCc1ccc(O)c(OC)c1,water,298,-2.179290593,mol/L
ClCC(Cl)C=C,water,298,-2.055510379,mol/L
ClC=C,water,298,-1.754480383,mol/L
[Li+].[Li+].[Li+].[F-].[F-].[F-].[F-].[F-].[F-].[Al+3],water,298,-2.167567043,mol/L
CCCCCCCCN1CCCC1=O,water,298,-2.257749011,mol/L
CCC(C)C\C(CC)=N\O,water,298,-2.130728127,mol/L
[Br-].C[N+](C)=C1OCCC1(c2ccccc2)c3ccccc3,water,298,-2.526575134,mol/L
Nc1ccccc1[N+]([O-])=O,water,298,0.867472343,mol/L
CCCCCCCCN1CCCC1=O,water,298,-2.290854135,mol/L
FC(F)(F)C(Br)=C,water,298,-2.238585126,mol/L
COc1ccc(CC(C)C=O)cc1,water,298,-2.24666187,mol/L
CC(C)(C)CC(C)(C)NC(=O)C=C,water,298,-2.258829245,mol/L
FCC(F)(F)F,water,298,-2.008727887,mol/L
NC(Nc1ccccc1)=Nc2ccccc2,water,298,-2.324833721,mol/L
COC(C)COC(C)CO,water,298,-2.170854065,mol/L
Nc1cc(Cl)c(Cl)cc1[S](O)(=O)=O,water,298,-2.383964293,mol/L
Cc1cc(N)c(cc1Cl)[S](O)(=O)=O,water,298,-2.345697125,mol/L
CCC(C)Cl,water,298,-1.966465572,mol/L
OC(=O)c1cc2ccccc2cc1O,water,298,-2.27457808,mol/L
CCOC(=O)C1OC1(C)c2ccccc2,water,298,-2.314375006,mol/L
O=[Mo](=O)=O,water,298,-2.158172447,mol/L
[Na+].CCC(=O)Nc1cccc(Nc2cc(c(N)c3C(=O)c4ccccc4C(=O)c23)[S]([O-])(=O)=O)c1,water,298,-2.687947003,mol/L
CC(=C)C(=O)OC(C)(C)C,water,298,-2.152893488,mol/L
Nc1ccc(Cl)cc1C(F)(F)F,water,298,-2.293481376,mol/L
C[Si](C)(C)N[Si](C)(C)C,water,298,-2.210072377,mol/L
C[Si](C)C,water,298,-1.8666346,mol/L
CCCCCCC(C)O,water,298,-2.12083746,mol/L
CC(C)(C)c1ccccc1O,water,298,-2.189958914,mol/L
CCCCCCCCN1CCCC1=O,water,298,-2.317451903,mol/L
CC(CCCC(C)(C)O)C=C,water,298,-2.221207241,mol/L
O=C1NSc2ccccc12,water,298,-2.207320229,mol/L
CC(Cc1ccc2OCOc2c1)C=O,water,298,-2.31343814,mol/L
CCC(C)Cl,water,298,-2.001263871,mol/L
[Pd++].CC([O-])=O.CC([O-])=O,water,298,-2.3865009,mol/L
CC1CCOC(C1)C=C(C)C,water,298,-2.224445792,mol/L
CCCCC(CC)CO,water,298,-2.160471866,mol/L
CC\C(C)=C\CCC(C)=O,water,298,-2.192586036,mol/L
[Na+].CC/1=CC(=O)C=CC1=N/Nc2ccc(Nc3ccc(cc3[N+]([O-])=O)[S]([O-])(=O)=O)cc2,water,298,-2.699363586,mol/L
OC(=O)c1oc(cc1)C(O)=O,water,298,-2.239623736,mol/L
CCOC(=O)c1ccccc1C(=O)OCC,water,298,-2.394514219,mol/L
OC(=O)c1cccc(Cl)c1Cl,water,298,-2.331672919,mol/L
CC(=O)CC(=O)Nc1ccccc1Cl,water,298,-2.376224162,mol/L
Cc1cc(c(N)cc1Cl)[S](O)(=O)=O,water,298,-2.406177873,mol/L
CCC(C)Cl,water,298,-2.040637998,mol/L
CC(=O)CC(=O)Nc1ccccc1Cl,water,298,-2.406536077,mol/L
CC(=O)Oc1ccc(Br)cc1,water,298,-2.416604157,mol/L
CC(=O)CC(=O)Nc1ccccc1Cl,water,298,-2.411800317,mol/L
CC(C)(C)OC(=O)C=C,water,298,-2.19397592,mol/L
CCCCC(CC)C=O,water,298,-2.20484885,mol/L
Cc1cc(O)cc(C)c1Cl,water,298,-2.291735049,mol/L
CCCCC(CC)CO.CCCCC(CC)CC(CC)CO.CCCC(O)C(CC)CO.CCCC(C(CC)CO)C(CC)CO,water,298,-2.925284669,mol/L
Sc1ccccc1Cl,water,298,-2.262619284,mol/L
Nc1cccc2cccc(N)c12,water,298,-2.307122857,mol/L
Nc1cccc2cccc(N)c12,water,298,-2.307680002,mol/L
Nc1cccc2cccc(N)c12,water,298,-2.31160016,mol/L
Nc1cccc2cccc(N)c12,water,298,-2.320695664,mol/L
C=CC=C,water,298,-1.8668457,mol/L
[O-][N+](=O)c1cc(ccc1C#N)C(F)(F)F,water,298,-2.470773563,mol/L
Nc1ccc(Cl)c(Cl)c1,water,298,-2.346243087,mol/L
CC(C)COC=C,water,298,-2.143366155,mol/L
[Pb++].[O-]c1c(cc(c([O-])c1[N+]([O-])=O)[N+]([O-])=O)[N+]([O-])=O,water,298,-2.808391369,mol/L
CCC\C=C(/CC)C=O,water,298,-2.255957874,mol/L
CCCCC(CC)C=O,water,298,-2.262840797,mol/L
CC(CC(O)=O)CC(C)(C)C,water,298,-2.354220979,mol/L
CC(=O)CC(=O)Nc1ccc2NC(=O)Nc2c1,water,298,-2.522680786,mol/L
OC(=O)CCCCCCCCCCC(O)=O,water,298,-2.517203441,mol/L
Nc1ccc2NC(=O)Nc2c1,water,298,-2.334782902,mol/L
CCCCCCCCCCCCCCCCN,water,298,-2.544001501,mol/L
CCCCCCCCCCCCN,water,298,-2.429155215,mol/L
CCCCCCCCCCCCCCCCCCN,water,298,-2.591737073,mol/L
CCCCC1OC(C)CC(C)(C)O1,water,298,-2.45329736,mol/L
CC(C)C(=O)c1ccccc1,water,298,-2.35661526,mol/L
[Cl-].CCCCCCCCCC[N+](C)(C)CCCCCCCCCC,water,298,-2.745898377,mol/L
ClC(Cl)(Cl)Cl,water,298,-2.374107921,mol/L
Nc1cc(cc(C(O)=O)c1O)[N+]([O-])=O,water,298,-2.490779033,mol/L
N.N.[Cl-].[Cl-].[Pd++],water,298,-2.52573978,mol/L
CO[Si](CCC(F)(F)C(F)(F)C(F)(F)C(F)(F)C(F)(F)C(F)(F)F)(OC)OC,water,298,-2.892356214,mol/L
CN[S](=O)(=O)c1cc(OC)c(N)cc1C,water,298,-2.576943359,mol/L
CC(C)(C)c1ccc(O)cc1,water,298,-2.391400814,mol/L
[F-].[F-].[F-].[F-].[F-].[F-].[Na+].[Na+].[Na+].[Al+3],water,298,-2.542498702,mol/L
CCc1ccc(CC)cc1.CC(C)c2ccccc2.Cc3ccccc3.Cc4cc(C)cc(C)c4.C5CCc6ccccc6C5.C7Cc8ccccc8C7.C9C=Cc%10ccccc9%10.c%11ccccc%11.c%12ccc%13ccccc%13c%12,water,298,-3.238710425,mol/L
CCCCC.CCc1ccccc1.Cc2ccccc2.Cc3cccc(C)c3.C4CCCC4,water,298,-2.871925948,mol/L
ClCC(Cl)C(Cl)=C,water,298,-2.424454207,mol/L
Cc1ccccc1.C=Cc2ccccc2.c3ccccc3,water,298,-2.660243936,mol/L
CCOC(=O)C(C)CC,water,298,-2.336416369,mol/L
Oc1cccc2c(O)cccc12,water,298,-2.426435348,mol/L
CC(C)(C)C1CCC(=O)CC1,water,298,-2.417381608,mol/L
CC1(C)[C@@H]2CC[C@]1(C)[C@H](O)C2,water,298,-2.420558395,mol/L
Nc1ccc(Cl)c(Cl)c1,water,298,-2.446137954,mol/L
[Mg++].O[P]([O-])([O-])=O,water,298,0.264188022,mol/L
CCCCOCCOCCOC(=O)CCCCC(=O)OCCOCCOCCCC,water,298,-2.882184886,mol/L
CC(C)COC(=O)C(C)=C,water,298,-2.397018633,mol/L
N#Cc1ccccc1C#N,water,298,-2.357928068,mol/L
N#Cc1ccccc1C#N,water,298,-2.359476357,mol/L
COc1ccc(C)cc1,water,298,-2.339542101,mol/L
C(CNc1cccc2ccccc12)CN3CCOCC3,water,298,-2.702803349,mol/L
Cc1cccc(c1)[N+]([O-])=O,water,298,-2.409616555,mol/L
Oc1ccccc1c2ccccc2,water,298,-2.506711754,mol/L
CCC(C)(C)c1ccccc1O,water,298,-2.49122422,mol/L
CO[Si](CCCCCC[Si](OC)(OC)OC)(OC)OC,water,298,-2.792947984,mol/L
Cc1ccccc1,water,298,-2.249285564,mol/L
C[C@@H]1[C@@H](CN)C[C@H]2C[C@@H]1C2(C)C,water,298,-2.515915381,mol/L
[O-][N+](=O)c1ccccc1Cl,water,298,-2.49500441,mol/L
[Pb++].[O-]c1c(cc(c([O-])c1[N+]([O-])=O)[N+]([O-])=O)[N+]([O-])=O,water,298,-2.954519405,mol/L
CC(CCC=C(C)C)C=O,water,298,-2.447858542,mol/L
OC(=O)CN(CCN(CC(O)=O)CC(O)=O)CC(O)=O,water,298,-2.766775599,mol/L
COc1ccc2nccc([C@@H](O)[C@@H]3CC4CCN3C[C@@H]4C=C)c2c1,water,298,-2.81214297,mol/L
COc1ccc2nccc([C@H](O)[C@H]3C[C@@H]4CCN3C[C@@H]4C=C)c2c1,water,298,-2.81214297,mol/L
C[C@@H]1O[C@@H](O[C@@H]2[C@@H](O)[C@H](O)[C@@H](CO)O[C@H]2Oc3cc(O)c4C(=O)C[C@H](Oc4c3)c5ccc(O)cc5)[C@H](O)[C@H](O)[C@H]1O,water,298,-3.064861396,mol/L
CCCCCCCCCCCC(=O)N(C)CC(O)=O,water,298,-2.734641439,mol/L
CCOC(=O)c1ccccc1,water,298,-2.47763342,mol/L
CC(C)COC(=O)[C@H](C)Cl,water,298,-2.51754425,mol/L
ClC1=C(Cl)C2(Cl)C3C(C(=O)OC3=O)C1(Cl)C2(Cl)Cl,water,298,-2.871074316,mol/L
Cc1cccc(c1)[N+]([O-])=O,water,298,-2.446076319,mol/L
C/C(C=O)=C/c1ccccc1,water,298,-2.474718615,mol/L
CC(Cl)(Cl)Cl,water,298,-2.44393087,mol/L
CC(C)CCCCCC(=O)NCCCCCC(O)=O,water,298,-2.752370206,mol/L
CC(C)=CC1CC(=C)CCO1,water,298,-2.510422359,mol/L
Clc1ccccc1,water,298,-2.379282368,mol/L
Brc1ccccc1,water,298,-2.526610433,mol/L
CCCC(C)C(=O)OCC,water,298,-2.489690542,mol/L
CC(=C)C(=O)OC(C)(C)C,water,298,-2.486375508,mol/L
CCCCOC=C,water,298,-2.33794082,mol/L
[O-][N+](=O)c1ccc(Cl)cc1,water,298,-2.541336745,mol/L
Nc1ccc(Cl)cc1Cl,water,298,-2.556353434,mol/L
CCCCC(CC)C=O,water,298,-2.454726323,mol/L
CCCCN[S](=O)(=O)c1ccccc1,water,298,-2.675782414,mol/L
CC1(C)CCCC(C)(O1)C=C,water,298,-2.535987278,mol/L
Brc1ccccc1,water,298,-2.547567303,mol/L
CC1=Nc2ccc(cc2C1(C)C)C(O)=O,water,298,-2.662589054,mol/L
CC1CCCCC1OC(C)=O,water,298,-2.550297857,mol/L
CC(C)COC(=O)[C@H](C)Cl,water,298,-2.573061578,mol/L
Cc1ccccc1[N+]([O-])=O,water,298,-2.496676375,mol/L
[O-][N+](=O)c1ccccc1Cl,water,298,-2.563966491,mol/L
CCCCC(CC)COC(=O)C(C)O,water,298,-2.67352571,mol/L
Brc1ccccc1,water,298,-2.568561457,mol/L
CC(C)=CCC\C(C)=C\C=O,water,298,-2.559270927,mol/L
[F-].[F-].[F-].[F-].[F-].[F-].[Na+].[Na+].[Na+].[Al+3],water,298,-2.698845903,mol/L
Cc1cccc(c1)[N+]([O-])=O,water,298,-2.514943789,mol/L
Cc1ccc(cc1)[N+]([O-])=O,water,298,-2.514943789,mol/L
COc1cc(CC=C)ccc1OC(C)=O,water,298,-2.701591149,mol/L
CC=C(C)C,water,298,-2.233150945,mol/L
OC[C@@H]1CO[C@](Cn2cncn2)(O1)c3ccc(Cl)cc3Cl,water,298,-2.905955068,mol/L
CCCCOC(=O)C(C)=C,water,298,-2.544367455,mol/L
COc1ccc(CCC(=O)c2c(O)cc(O[C@@H]3O[C@H](CO)[C@@H](O)[C@H](O)[C@H]3O[C@@H]4O[C@@H](C)[C@H](O)[C@@H](O)[C@H]4O)cc2O)cc1O,water,298,-3.185103531,mol/L
CCCCC(CC)C=O,water,298,-2.505878845,mol/L
CC(CCO)CC(C)(C)C,water,298,-2.557079916,mol/L
Oc1cc(Cl)ccc1[N+]([O-])=O,water,298,-2.637377139,mol/L
Clc1ccccc1,water,298,-2.449320235,mol/L
CCOC(=O)N1C(=O)c2ccccc2C1=O,water,298,-2.738772633,mol/L
CC(C)[C@@H]1CC[C@@H](C)C[C@H]1O,water,298,-2.595082326,mol/L
CC(C)[C@@H]1CC[C@@H](C)C[C@H]1O,water,298,-2.600586766,mol/L
CCCCC(CC)C=O,water,298,-2.51687423,mol/L
CC(CCO)CCc1ccccc1,water,298,-2.660025838,mol/L
[Cl-].CCCCCCCCCC[N+](C)(C)CCCCCCCCCC,water,298,-2.967747126,mol/L
Fc1ccc(cc1)C([NH+]2CC[NH2+]CC2)c3ccc(F)cc3,water,298,-2.878601076,mol/L
CC(C)[C@@H]1CC[C@@H](C)C[C@H]1O,water,298,-2.619841565,mol/L