Solute,Solvent,Temperature_K,Solubility,Units
NC(CO)C(O)=O,water,298,0.534366648,mol/L
[Cl-].[K+],water,298,0.67777488,mol/L
O[S](=O)(=O)c1ccc2ccccc2c1,water,298,0.230443278,mol/L
CCC(C)=O,water,298,0.689797278,mol/L
N[C@@H](CCC(N)=O)C(O)=O,water,298,-0.611875483,mol/L
CCCCNCC,water,298,-0.454922118,mol/L
COC(=O)CC(=C)C(=O)OC,water,298,-0.653770318,mol/L
OCCOCCOc1ccccc1,water,298,-0.716525615,mol/L
CC(CCCC(C)(C)O)CC=O,water,298,-0.692136567,mol/L
CCCNCCC,water,298,-0.461082427,mol/L
Nc1ccccc1,water,298,-0.425016895,mol/L
[Li+].[Li+].[O-][S]([O-])(=O)=O,water,298,0.501649943,mol/L
CCN(O)CC,water,298,0.591890589,mol/L
[Na+].OC(=O)c1cc(cc(c1)[S]([O-])(=O)=O)C(O)=O,water,298,0.109395948,mol/L
[Na+].[Na+].[Na+].[Na+].[Na+].[Na+].[O-][S](=O)(=O)c1cc(Nc2nc(Cl)nc(Nc3ccc(Nc4nc(Cl)nc(Nc5cc(cc6C=C(/C(=N/Nc7ccccc7[S]([O-])(=O)=O)C(=O)c56)[S]([O-])(=O)=O)[S]([O-])(=O)=O)n4)cc3)n2)c8C(=O)C(=N/Nc9ccccc9[S]([O-])(=O)=O)\C(=Cc8c1)[S]([O-])(=O)=O,water,298,-0.630380903,mol/L
[Li+].[Li+].[O-]C(=O)CCCCC([O-])=O,water,298,0.336615044,mol/L
[Li+].[Li+].[O-]C(=O)CCCCCCCCC([O-])=O,water,298,0.204644999,mol/L
[Li+].[Li+].[O-]C(=O)CCCCCCCC([O-])=O,water,298,0.234070906,mol/L
[Li+].[Li+].[O-][S]([O-])(=O)=O,water,298,0.492850622,mol/L
[Br-].C[P+](c1ccccc1)(c2ccccc2)c3ccccc3,water,298,-0.018923033,mol/L
[Cl-].[K+],water,298,0.661572633,mol/L
[Cl-].C[n+]1ccccc1,water,298,0.420182889,mol/L
[Na+].[Na+].[Na+].NC(=O)Nc1cc(Nc2nc(F)nc(NCCOCC[S](=O)(=O)C=C)n2)ccc1N=Nc3cc4c(cc(cc4[S]([O-])(=O)=O)[S]([O-])(=O)=O)cc3[S]([O-])(=O)=O,water,298,-0.414559724,mol/L
CCc1nccnc1C,water,298,0.444510788,mol/L
[H+].[Cl-].NO,water,298,0.689550356,mol/L
CCCC#N,water,298,-0.305495934,mol/L
OCCN(CCO)c1ccccc1,water,298,-0.725487693,mol/L
C=CC(=O)NCNC(=O)C=C,water,298,-0.655242676,mol/L
CC[C@H](C)[C@H](N)C(O)=O,water,298,-0.586372156,mol/L
Nc1ccc(N)cc1,water,298,-0.502523512,mol/L
[Na+].[Na+].[Na+].[Na+].CCN(c1ccccc1)c2nc(Cl)nc(Nc3cc(cc4cc(c(N=Nc5ccc6c(cccc6[S]([O-])(=O)=O)c5[S]([O-])(=O)=O)c(O)c34)[S]([O-])(=O)=O)[S]([O-])(=O)=O)n2,water,298,-0.449447907,mol/L
[Na+].[O-][N+](=O)c1cccc(c1)[S]([O-])(=O)=O,water,298,0.173853824,mol/L
OC[C@H](O)[C@@H](O)[C@H](O)C(=O)C(O)=O,water,298,0.237320765,mol/L
C[N+]1([O-])CCOCC1,water,298,0.456309929,mol/L
[NH3+]CCO.[NH3+]CCO.[NH3+]CCO.OC(CC([O-])=O)(CC([O-])=O)C([O-])=O,water,298,-0.050160116,mol/L
[Na+].NCCNCC[S]([O-])(=O)=O,water,298,0.244535954,mol/L
[Na+].[Na+].[Na+].Cc1cc(N=Nc2cc(ccc2[S]([O-])(=O)=O)[S]([O-])(=O)=O)c(C)cc1N=Nc3ccc(Nc4nc(N)nc(Cl)n4)c5c3cccc5[S]([O-])(=O)=O,water,298,-0.386945691,mol/L
[K+].[O-][S](=O)(=O)CCCOC(=O)C=C,water,298,1.156268325,mol/L
[Na+].[Na+].[Na+].Cc1c(Nc2nc(Cl)nc(Nc3cccc(c3)[S]([O-])(=O)=O)n2)c(C)c(c(C)c1Nc4cc(c(N)c5C(=O)c6ccccc6C(=O)c45)[S]([O-])(=O)=O)[S]([O-])(=O)=O,water,298,-0.424427985,mol/L
[Na+].[Na+].[Na+].Cc1c(Nc2nc(Cl)nc(Nc3ccccc3[S]([O-])(=O)=O)n2)c(C)c(c(C)c1Nc4cc(c(N)c5C(=O)c6ccccc6C(=O)c45)[S]([O-])(=O)=O)[S]([O-])(=O)=O,water,298,-0.424427985,mol/L
COCOC,water,298,0.637157819,mol/L
[Cl-].[K+],water,298,0.646060467,mol/L
OCCN(CCO)c1ccccc1,water,298,-0.733197265,mol/L
Nc1ccc(F)cc1,water,298,-0.527274385,mol/L
[Cl].[Fe].[O-][S]([O-])(=O)=O,water,298,0.243194648,mol/L
[Cl-].[Cl-].[Cl-].[Fe+3],water,298,0.305812284,mol/L
[Fe++].[O-][S]([O-])(=O)=O,water,298,0.334293198,mol/L
C1N(CCOC1)C2=NC(=NC(=N2)NC3=C4C(=O)/C(=N/NC5=CC=CC=C5)/C(=CC4=CC(=C3)S(=O)(=O)[O-])S(=O)(=O)[O-])NC6=CC(=C(C=C6)/C=C/C7=C(C=C(C=C7)NC8=NC(=NC(=N8)N9CCOCC9)NC1=C2C(=O)/C(=N/NC3=CC=CC=C3)/C(=CC2=CC(=C1)S(=O)(=O)[O-])S(=O)(=O)[O-])S(=O)(=O)[O-])S(=O)(=O)[O-].[Na+].[Na+].[Na+].[Na+].[Na+].[Na+],water,298,-1.144796153,mol/L
CC(=O)C1CCOC1=O,water,298,0.397509321,mol/L
CC(=O)NNC(C)=O,water,298,0.440242951,mol/L
OCCN(CCO)c1ccccc1,water,298,-0.742368228,mol/L
[Na+].COC(=O)c1cc(cc(c1)[S]([O-])(=O)=O)C(=O)OC,water,298,-0.966481992,mol/L
COC(C)=O,water,298,0.634095572,mol/L
[Na+].[Cl-],water,298,0.734326761,mol/L
[Li+].[Li+].[O-]C(=O)CCCC([O-])=O,water,298,0.342754077,mol/L
CC1OC(=C(O)C1=O)C,water,298,0.390669896,mol/L
[Na+].COc1cc(O)c(cc1[S]([O-])(=O)=O)C(=O)c2ccccc2,water,298,-0.022384851,mol/L
[Li+].CC([O-])=O,water,298,0.674709373,mol/L
CC(C)OC(C)=O,water,298,-0.505375406,mol/L
CC(C)C(O)C(C)(C)CO,water,298,-0.666725926,mol/L
COC(C)(C)C,water,298,-0.453860623,mol/L
Nc1ccccc1N,water,298,-0.542640735,mol/L
Nc1ccc(N)cc1,water,298,-0.542640735,mol/L
Oc1ccccc1C#N,water,298,-0.584633928,mol/L
CCC=O,water,298,0.721694819,mol/L
CCN1CCOCC1,water,298,0.420080637,mol/L
CCCCC(CC)COC(=O)[C@H](C)O,water,298,-2.67352571,mol/L
O=C1CCCC1,water,298,0.553677557,mol/L
[H+].[Cl-].CNC,water,298,1.565718592,mol/L
S.[Mn],water,298,-4.159911756,mol/L
COC=O,water,298,0.698593779,mol/L
[Na+].[Na+].[Na+].Oc1cc(c2ccc3c4c(ccc1c24)c(cc3[S]([O-])(=O)=O)[S]([O-])(=O)=O)[S]([O-])(=O)=O,water,298,-0.242535631,mol/L
CC(C)OC(C)=O,water,298,-0.519207609,mol/L
CC1C=CCC2C1C(=O)OC2=O,water,298,-0.736268462,mol/L
CC(C)NC(=O)C(C)=C,water,298,-0.620142884,mol/L
[Na+].[Na+].OCCNc1nc(Nc2ccccc2)nc(Nc3ccc(\C=C\c4ccc(Nc5nc(NCCO)nc(Nc6ccccc6)n5)cc4[S]([O-])(=O)=O)c(c3)[S]([O-])(=O)=O)n1,water,298,-1.4592144,mol/L
CCOCCOC(C)(C)C,water,298,-0.687915225,mol/L
COC(C)CCOC(C)=O,water,298,-0.687784528,mol/L
[Na+].CCCCCCCCCCCCCCCO[S]([O-])(=O)=O,water,298,-1.042005529,mol/L
NC(=N)[S](O)=O,water,298,-0.556792816,mol/L
NC1CCC(CC1)CC2CCC(N)CC2,water,298,-1.723090413,mol/L
CC(C)C(=O)OOC(C)(C)C,water,298,-1.607002567,mol/L
COC(Cc1ccccc1)OC,water,298,-1.629618671,mol/L
Nc1nc(N)nc(N)n1.O[P](O)(O)=O,water,298,-1.759410193,mol/L
C1OCC2Cc3ccccc3C2O1,water,298,-1.656093273,mol/L
COc1cc(CC(C(C)=O)C(C)=O)ccc1O,water,298,-1.786365949,mol/L
[Al+3].CCCC[O-].CCCC[O-].CCCC[O-],water,298,-1.806051288,mol/L
CCCCNCCCC,water,298,-1.531636875,mol/L
NO,water,298,-0.939124977,mol/L
CCOc1nc(NC)nc(NC(=O)N[S](=O)(=O)c2ccccc2C(=O)OC)n1,water,298,-2.038032206,mol/L
OC[C@H]1NC[C@H](O)[C@@H](O)[C@@H]1O,water,298,0.404352043,mol/L
CCOC(=O)C(Cl)C(=O)OCC,water,298,-1.720972355,mol/L
[Na+].[O-][S](=O)(=O)C1=CC(=O)C2=C(NNc3ccccc3C(F)(F)F)C(=N)C=CC2=C1,water,298,-2.068630062,mol/L
CC(=C)C(=O)OCCOCCOCCOC(=O)C(C)=C,water,298,-1.900555252,mol/L
CC1CC(CCC1N)CC2CCC(N)C(C)C2,water,298,-1.821038361,mol/L
OC[C@H]1NC[C@H](O)[C@@H](O)[C@@H]1O,water,298,0.401193524,mol/L
Cc1ccc(C)c(O)c1,water,298,-1.537582757,mol/L
Nc1ncnc2n(cnc12)C3OC(CO[P](O)(O)=O)C(O)C3O,water,298,-1.995302619,mol/L
ClCC(Cl)Cl,water,298,-1.581104063,mol/L
Cc1cc(O)c(C)c(C)c1O,water,298,-1.638326634,mol/L
CCCCCCCCCCCCCCCCN,water,298,-1.838782548,mol/L
Nc1ccc(cc1)[S](=O)(=O)CCO[S](O)(=O)=O,water,298,-1.90511867,mol/L
CCCCCCCCCCCCN,water,298,-1.723936261,mol/L
CCCCCCCCCCCCCCCCCCN,water,298,-1.88651812,mol/L
C=CCN1C(=O)N(CC=C)C(=O)N(CC=C)C1=O,water,298,-1.852601969,mol/L
COC(=O)c1nccnc1N,water,298,-1.642266052,mol/L
Nc1nc(N)nc(N)n1,water,298,-1.559215049,mol/L
OC(=O)c1ccccc1,water,298,-1.54646799,mol/L
NC(N)=N[N+]([O-])=O,water,298,-1.485842464,mol/L
Nc1ccccc1C(F)(F)F,water,298,-1.675686709,mol/L
CC(=O)N1CCN(CC1)c2ccc(O)cc2,water,298,-1.817914488,mol/L
C1OC1COc2ccc(cc2)N(CC3CO3)CC4CO4,water,298,-1.919234725,mol/L
NN=C(N)N.OC(O)=O,water,298,-1.615379285,mol/L
CCC(C)(C)Cl,water,298,-1.509226968,mol/L
OC(=O)CCCCCNc1nc(NCCCCCC(O)=O)nc(NCCCCCC(O)=O)n1,water,298,-2.152246637,mol/L
CNCc1cccc2ccccc12,water,298,-1.715098888,mol/L
COc1ccccc1NC(=O)CC(C)=O,water,298,-1.805905521,mol/L
Cc1ccc(C)c(O)c1,water,298,-1.584526789,mol/L
CC(C)Br,water,298,-1.587453275,mol/L
CC(C)Br,water,298,-1.591569841,mol/L
CC(C)OC(C)C,water,298,-1.516592758,mol/L
CC(C)(O)c1cccc(c1)C(C)(C)O,water,298,-1.797052988,mol/L
CC(C)Br,water,298,-1.598518701,mol/L
Cc1ccc(cc1)[S](N)(=O)=O,water,298,-1.742195335,mol/L
Cc1cc2NC(=O)Nc2cc1N,water,298,-1.721305235,mol/L
CCSCC,water,298,-1.468024827,mol/L
CCSCC,water,298,-1.468591052,mol/L
CC(C)=CCCC(C)=O,water,298,-1.621048971,mol/L
Nc1nc(N)nc(N)n1.O[P](O)(O)=O,water,298,-1.873353546,mol/L
CCCCOCCOCCOCCCC,water,298,-1.862006084,mol/L
NC(N)=N[N+]([O-])=O,water,298,-1.540200127,mol/L
CC1CCC(C(O)C1)C(C)=C,water,298,-1.711112365,mol/L
COc1ccc(C)cc1N,water,298,-1.660175876,mol/L
OC(=O)c1cc(C(O)=O)c(cc1C(O)=O)C(O)=O.C2CN=C(N2)c3ccccc3,water,298,-2.125310985,mol/L
Nc1ccc(Cl)cc1,water,298,-1.628640918,mol/L
CCC(C)CC(=O)CC,water,298,-1.630817582,mol/L
CC(=O)CC(=O)Nc1ccccc1C,water,298,-1.80443477,mol/L
[Al+3].CC([O-])=CC(C)=O.CC([O-])=CC(C)=O.CC([O-])=CC(C)=O,water,298,-2.033837746,mol/L
O=Cc1ccccc1,water,298,-1.548692356,mol/L
FC(F)Cl,water,298,-1.459734159,mol/L
s1cccc1,water,298,-1.447896737,mol/L
[Na+].[K+].CC1=NN(C(O)C1N=Nc2ccc3c(cccc3[S]([O-])(=O)=O)c2[S](O)(=O)=O)c4ccc(cc4)[S](=O)(=O)CCO[S]([O-])(=O)=O,water,298,-0.392839827,mol/L
OCC(Br)(CO)[N+]([O-])=O,water,298,0.173212327,mol/L
OCC#CCO,water,298,1.536339003,mol/L
[Na+].[Na+].[Na+].CCN(c1ccccc1)c2nc(Cl)nc(Nc3cc(cc4C=C(\C(=N/Nc5ccc6ccccc6c5[S]([O-])(=O)=O)C(=O)c34)[S]([O-])(=O)=O)[S]([O-])(=O)=O)n2,water,298,-0.459235549,mol/L
[Cl].[Fe].[O-][S]([O-])(=O)=O,water,298,0.19714282,mol/L
[Cl-].[Cl-].[Cl-].[Fe+3],water,298,0.259760456,mol/L
[Fe++].[O-][S]([O-])(=O)=O,water,298,0.28824137,mol/L
[Na+].[Na+].[Na+].[Na+].[O-][P]([O-])(=O)O[P]([O-])([O-])=O,water,298,0.04214765,mol/L
[Na+].Oc1ccc(cc1NNC2=CC=C3C(=O)C=CC=C3C2=O)[S]([O-])(=O)=O,water,298,-0.901196004,mol/L
OC(=O)CCC(N(CC(O)=O)CC(O)=O)C(O)=O,water,298,0.043603804,mol/L
OCC(Br)(CO)[N+]([O-])=O,water,298,0.161394061,mol/L
COC(=O)CCCCC(=O)OC,water,298,-0.76536699,mol/L
CN1[C@@H]2CC(C[C@H]1C3OC23)OC(=O)[C@H](CO)c4ccccc4,water,298,-1.007447813,mol/L
CC(=C)OC(C)=O,water,298,-0.527751378,mol/L
O=C1OC(=O)C2CC=CCC12,water,298,-0.713921772,mol/L
Cc1[nH]nc(C)c1,water,298,-0.520474498,mol/L
CC(=C)C#N,water,298,-0.364266267,mol/L
[Ca++].CCC([O-])=O.CCC([O-])=O,water,298,0.19087152,mol/L
[Na+].CCCCCCCCCCCCO[S]([O-])(=O)=O,water,298,-0.00058018,mol/L
OCC(Br)(CO)[N+]([O-])=O,water,298,0.155362096,mol/L
[K+].[K+].CCCCCCCCCCCCCC(=O)NCC([O-])=O.CCCCCCCCCCCC(=O)NCC([O-])=O,water,298,-0.3429717,mol/L
Cc1[nH]nc(C)c1,water,298,-0.521974653,mol/L
Cc1[nH]nc(C)c1,water,298,-0.523480008,mol/L
CCC12CC[C@H]3[C@@H](CCC4=CC(=O)CC[C@H]34)[C@@H]1CCC2=O,water,298,-3.732719889,mol/L
N[C@@H](CO[P](O)(O)=O)C(O)=O,water,298,-0.814940872,mol/L
Oc1ccc(Cl)cc1,water,298,-0.661941076,mol/L
[Na+].CCCCC(CC)CCCCCc1ccc(cc1)[S]([O-])(=O)=O,water,298,-0.096905651,mol/L
[Na+].[Na+].[Na+].[Na+].[Na+].[Na+].OCCN(CCO)c1nc(Nc2ccc(\C=C\c3ccc(Nc4nc(Nc5cc(ccc5[S]([O-])(=O)=O)[S]([O-])(=O)=O)nc(n4)N(CCO)CCO)cc3[S]([O-])(=O)=O)c(c2)[S]([O-])(=O)=O)nc(Nc6cc(ccc6[S]([O-])(=O)=O)[S]([O-])(=O)=O)n1,water,298,-0.6924056,mol/L
[Cs+].[Cs+].[O-]C([O-])=O,water,298,0.930068755,mol/L
[Na+].[O-][N+](=O)c1cccc(c1)[S]([O-])(=O)=O,water,298,0.089994316,mol/L
O.O.[Cl-].[Cl-].[Ba++],water,298,0.053049617,mol/L
CC(C)(CO)COC(=O)C(C)(C)CO,water,298,0.127554478,mol/L
CCCCl,water,298,1.537867335,mol/L
CC(C)(CO)COC(=O)C(C)(C)CO,water,298,0.12116768,mol/L
CC(C)(C)C(O)=O,water,298,-0.563561886,mol/L
CC1(C)CC(O)CC(C)(C)N1CCO,water,298,-0.859820553,mol/L
CCN(CC)CC#C,water,298,-0.602013123,mol/L
[Co++].OC(=O)CC(O)(CC([O-])=O)C([O-])=O,water,298,-0.954573972,mol/L
[Co++].[Co++].[Co++].OC(CC([O-])=O)(CC([O-])=O)C([O-])=O.OC(CC([O-])=O)(CC([O-])=O)C([O-])=O,water,298,-1.3025955,mol/L
S=C1NCCN1,water,298,-0.571538824,mol/L
Oc1ccc(Cl)cc1,water,298,-0.676129817,mol/L
NC(Cc1ccccc1)C(O)=O,water,298,-0.785821742,mol/L
OCCOc1ccccc1,water,298,-0.709037421,mol/L
Oc1ccc(Cl)cc1,water,298,-0.677735343,mol/L
O.O.[Cl-].[Cl-].[Ba++],water,298,0.041892815,mol/L
OCC(Br)(CO)[N+]([O-])=O,water,298,0.127130857,mol/L
[SH--].[Cu+].[Cu+],water,298,-4.204573041,mol/L
Cc1[nH]ccn1,water,298,0.512136367,mol/L
[Na+].[Na+].[Na+].[O-][P]1(=O)O[P]([O-])(=O)O[P]([O-])(=O)O1,water,298,-0.062309467,mol/L
Nc1[nH]ncn1,water,298,0.496900894,mol/L
O=[Se]=O,water,298,1.364774503,mol/L
C1CCOCOC1,water,298,0.41078966,mol/L
O.O.[Cl-].[Cl-].[Ba++],water,298,0.032096284,mol/L
[Na+].[Na+].[Na+].[Na+].[Na+].Nc1nc(Cl)nc(Nc2ccc(c(N\N=C/3C(=O)c4c(N)c(N=Nc5cc(ccc5[S]([O-])(=O)=O)[S]([O-])(=O)=O)c(cc4C=C3[S]([O-])(=O)=O)[S]([O-])(=O)=O)c2)[S]([O-])(=O)=O)n1,water,298,-0.590800584,mol/L
Nc1[nH]ncn1,water,298,0.491937474,mol/L
CC(C)=CC(C)=O,water,298,-0.560826234,mol/L
[Na+].[Na+].Oc1ccc(Cl)cc1N\N=C/2C(=O)c3c(O)cc(cc3C=C2[S]([O-])(=O)=O)[S]([O-])(=O)=O,water,298,-1.289808658,mol/L
[Cl-].CCOC(=O)c1ccccc1c2c3ccc(cc3[o+]c4cc(ccc24)N(CC)CC)N(CC)CC,water,298,-1.280189706,mol/L
Oc1ccc(Cl)cc1,water,298,-0.687659717,mol/L
CC(=C)C#N,water,298,-0.406708517,mol/L
Cc1ccccc1O,water,298,-0.619013017,mol/L
OCCOc1ccccc1,water,298,-0.725427837,mol/L
CC(C)OC(C)=O,water,298,-0.594192741,mol/L
[Li+].[Li+].[O-][S]([O-])(=O)=O,water,298,0.392124281,mol/L
CC(=C)C(=O)OCC[N+](C)(C)CCC[S]([O-])(=O)=O,water,298,0.96273997,mol/L
[Li+].[Li+].[O-][S]([O-])(=O)=O,water,298,0.365364697,mol/L
[Cl-].[Cl-].[Ni++],water,298,1.292232066,mol/L
[Na+].[Na+].CN(CC[S]([O-])(=O)=O)c1ccc(cc1)/C=C(C#N)/C(=O)Nc2ccc(cc2)c3sc4c(ccc(C)c4[S]([O-])(=O)=O)n3,water,298,-0.415949942,mol/L
NCC(O)=O,water,298,0.522490949,mol/L
Cc1ccccc1O,water,298,-0.620686601,mol/L
CC(=C)C#N,water,298,-0.416731142,mol/L
CC(=C)C#N,water,298,-0.421830549,mol/L
NC(CC(N)=O)C(O)=O,water,298,-0.721291556,mol/L
NC(Cc1ccccc1)C(O)=O,water,298,-0.819701706,mol/L
Cc1ccccc1O,water,298,-0.636046357,mol/L
OCCOc1ccccc1,water,298,-0.742461176,mol/L
OC(=O)CCCCC(O)=O,water,298,-0.766835038,mol/L
CC(=C)C#N,water,298,-0.428724257,mol/L
[K+].OC(=O)C([O-])=O,water,298,-0.70969048,mol/L
[K].OC(=O)C(O)=O.OC(=O)C(O)=O,water,298,-0.942833173,mol/L
[Na+].ClN1C(=O)[N-]C(=O)N(Cl)C1=O,water,298,0.052483734,mol/L
[Na+].[Na+].CC(=O)Nc1ccc2C(=O)C(=N/Nc3ccc(cc3)[S](=O)(=O)CCO[S]([O-])(=O)=O)\C(=Cc2c1)[S]([O-])(=O)=O,water,298,-0.39639349,mol/L
CC(=O)NNC(C)=O,water,298,0.328668176,mol/L
CCOC(=O)C(C)C1CCCCC1,water,298,-3.327456749,mol/L
[Ca++].[O-]C(=O)C1CCC(=O)N1,water,298,0.165147848,mol/L
COC(C)=O,water,298,0.516803854,mol/L
[Na+].[Na+].Cc1cc(Oc2cc(C)cc(c2)[S]([O-])(=O)=O)cc(c1)[S]([O-])(=O)=O,water,298,-0.220796195,mol/L
CN(C)CCOC(=O)C=C,water,298,0.224310685,mol/L
CC1COC(=O)O1,water,298,0.371232292,mol/L
COc1ccc(CO)cc1,water,298,-0.744727146,mol/L
Nc1ccccc1.C=O,water,298,-2.004092218,mol/L
Nc1ccccc1.C=O,water,298,-2.534149548,mol/L
OC1(CCCCC1)C#C,water,298,-0.704896063,mol/L
Cc1ccccc1O,water,298,-0.644820281,mol/L
OC(=O)c1ccc2C(=O)OC(=O)c2c1,water,298,-0.896196315,mol/L
OCCOc1ccccc1,water,298,-0.760189943,mol/L
Oc1ccc(Cl)cc1,water,298,-0.728887866,mol/L
[Cs],water,298,0.255764198,mol/L
CC(C)(CO)COC(=O)C(C)(C)CO,water,298,0.068201817,mol/L
[Na+].[Na+].[Na+].[Na+].[Cu++].Nc1nc(Cl)nc(Nc2cc(cc3cc(c(N=Nc4cc(c5cccc(c5c4[O-])[S]([O-])(=O)=O)[S]([O-])(=O)=O)c([O-])c23)[S]([O-])(=O)=O)[S]([O-])(=O)=O)n1,water,298,-0.590781442,mol/L
[Na+].ClN1C(=O)[N-]C(=O)N(Cl)C1=O,water,298,0.032063655,mol/L
NNC(=O)NN,water,298,0.414558554,mol/L
CCCC(C)O,water,298,-0.254140825,mol/L
[Na+].CC(=O)[C-]1C(=O)OC(=CC1=O)C,water,298,0.084561332,mol/L
COC=O,water,298,0.58320036,mol/L
Cc1cccc(O)c1,water,298,-0.662918503,mol/L
COc1ccccc1O,water,298,-0.726552322,mol/L
CS,water,298,-0.314879436,mol/L
Oc1ccccc1Cl,water,298,-0.74267615,mol/L
CC(C)CC(N)C(O)=O,water,298,-0.756123237,mol/L
CCCC1CO1,water,298,-0.57344678,mol/L
Cc1cccc(O)c1,water,298,-0.672258529,mol/L
OC(=O)CCCCC(O)=O,water,298,-0.803047211,mol/L
[K+].O[B-](O)(F)F,water,298,-0.724347118,mol/L
[Na+].CC(=O)Nc1ccc(NNC2=C3C(=O)C=C(C=C3C=CC2=N)[S]([O-])(=O)=O)c(c1)C(F)(F)F,water,298,-1.328818198,mol/L
[Cl].[Fe].[O-][S]([O-])(=O)=O,water,298,0.085255651,mol/L
[Cl-].[Cl-].[Cl-].[Fe+3],water,298,0.147873287,mol/L
[Fe++].[O-][S]([O-])(=O)=O,water,298,0.176354201,mol/L
N[C+](N)N.[O-]C(=O)c1ccccc1,water,298,0.005016256,mol/L
[H+].[Cl-].NCC1(CCCCC1)CC(O)=O,water,298,0.034743931,mol/L
O.O.O.O.[Na+].[Na+].[O-]B([O-])[O-].[O-]B([O-])[O-].[O-]B([O-])[O-].[O-]B([O-])[O-].[O-]B([O-])[O-].[O-]B([O-])[O-].[O-]B([O-])[O-].[O-]B([O-])[O-],water,298,-0.42018642,mol/L
[Na+].[O-]C(=O)COc1ccccc1,water,298,0.108595705,mol/L
CCC(C)=O,water,298,0.490327436,mol/L
[Na+].CCN(CC)c1ccc(cc1)[C+](c2ccc(cc2)N(CC)CC)c3ccc(cc3[S]([O-])(=O)=O)[S]([O-])(=O)=O,water,298,-0.406689269,mol/L
[NH4+].[NH4+].[Zn++].[Zn++].[O-]C([O-])=O.[O-]C([O-])=O.[O-]C([O-])=O,water,298,-0.197759084,mol/L
Cc1cccc(O)c1,water,298,-0.677960508,mol/L
[NH4+].[NH4+].[O-]C(=O)C([O-])=O,water,298,-0.737731926,mol/L
Oc1ccccc1Cl,water,298,-0.753839202,mol/L
Cn1cnc2N(C)C(=O)N(C)C(=O)c12,water,298,-0.945813127,mol/L
NC(Nc1ccccc1)=Nc2ccccc2,water,298,-0.98241104,mol/L
Clc1ccc(Br)cc1Cl,water,298,-1.01149355,mol/L
CCCC[NH+](C)C,water,298,-0.667032464,mol/L
[Na+].[Na+].[Na+].[Na+].[O-][S](=O)(=O)c1cccc2cc(NNC3=CC(=O)C4=CC(C=CC4=C3[S]([O-])(=O)=O)=NC(=O)Nc5ccc6C(=O)C(=N/Nc7ccc8cccc(c8c7)[S]([O-])(=O)=O)/C(=Cc6c5)[S]([O-])(=O)=O)ccc12,water,298,-0.687217137,mol/L
[H+].[Cl-].NCC1(CCCCC1)CC(O)=O,water,298,0.019021146,mol/L
NC(N)=N.SC#N,water,298,1.259949601,mol/L
[H+].[Cl-].NC(N)=N,water,298,1.352285044,mol/L
OC(C(O)C(O)=O)C(O)=O,water,298,0.156098277,mol/L
[K+].O[C@H]([C@@H](O)C([O-])=O)C(O)=O,water,298,0.057874227,mol/L
[Na+].[K+].O[C@H]([C@@H](O)C([O-])=O)C([O-])=O,water,298,0.009892533,mol/L
CC(=O)CC(=O)OCCOC(=O)CC(C)=O,water,298,-0.0337559,mol/L
[Na+].Nc1ccc(cc1)[S]([O-])(=O)=O,water,298,0.037955415,mol/L
C1OCOCO1,water,298,0.371717126,mol/L
C1OCOCO1,water,298,0.36966372,mol/L
[Mn++].O[P]([O-])([O-])=O,water,298,0.14554717,mol/L
O.[Zn++].[O-][S]([O-])(=O)=O,water,298,0.070295432,mol/L
[Na+].[Na+].[O-][Si]([O-])=O,water,298,0.235635255,mol/L
O.[Zn++].[O-][S]([O-])(=O)=O,water,298,0.068232272,mol/L
CC(C)CC(C)O,water,298,-0.670896654,mol/L
[Na+].[O-]C(=O)Cc1ccccc1Nc2c(Cl)cccc2Cl,water,298,-1.174231848,mol/L
[Na+].[Na+].COc1cc(ccc1Nc2nc(Nc3ccc(cc3OC)N=Nc4cccc(c4)[S]([O-])(=O)=O)nc(n2)N(CCO)CCO)N=Nc5cccc(c5)[S]([O-])(=O)=O,water,298,-1.600815525,mol/L
CCC(CO)(CO)COCC(CC)(CO)CO,water,298,-1.076302279,mol/L
COC(=O)CCS,water,298,-0.757587608,mol/L
CCCCCO,water,298,-0.623003022,mol/L
[Na+].Cc1ccc(cc1[N+]([O-])=O)C(=O)Nc2ccc(cc2)[S]([O-])(=O)=O,water,298,-1.232035998,mol/L
Cc1[nH]cnc1CO,water,298,0.268333767,mol/L
[H+].[Cl-].NCC1(CCCCC1)CC(O)=O,water,298,0.000624748,mol/L
[K+].O[P](O)([O-])=O,water,298,0.184256269,mol/L
C=CC=O,water,298,0.569379255,mol/L
O.[Zn++].[O-][S]([O-])(=O)=O,water,298,0.064076312,mol/L
O.O.O.O.[Ce+3].O[S]([O-])(=O)=O.[O-][S]([O-])(=O)=O,water,298,-0.291816974,mol/L
N.N.N.N.N.N.O.O.O.O.O.O.O.O.O.O.O.O.O.O.O.O.O.O.O.O.O.O.O.O.[Mo].[Mo].[Mo].[Mo].[Mo].[Mo].[Mo],water,298,-0.766472624,mol/L
[NH4+].[O-][Cl](=O)(=O)=O,water,298,0.243662836,mol/L
[Na+].[Na+].[Na+].[Na+].[Na+].[Cu++].[O-]C(=O)c1cc(ccc1NNC(=N/Nc2cc(cc([N-]c3nc(Cl)nc(n3)N=C4C=C(C(C=C4[S]([O-])(=O)=O)=Nc5nc(Cl)nc(Nc6cccc(c6)[S]([O-])(=O)=O)n5)[S]([O-])(=O)=O)c2[O-])[S]([O-])(=O)=O)\c7ccccc7)[S]([O-])(=O)=O.[H+],water,298,-0.825411234,mol/L
CC(=C)C(N)=O,water,298,0.37539119,mol/L
[Na+].[Na+].[Na+].[Na+].[Na+].[Na+].CCN(CC)c1nc(Nc2ccc(\C=C\c3ccc(Nc4nc(Nc5cc(ccc5[S]([O-])(=O)=O)[S]([O-])(=O)=O)nc(n4)N(CC)CC)cc3[S]([O-])(=O)=O)c(c2)[S]([O-])(=O)=O)nc(Nc6cc(ccc6[S]([O-])(=O)=O)[S]([O-])(=O)=O)n1,water,298,-0.812249023,mol/L
[Cl-].CN[C@@H](C)[C@H](O)c1ccccc1.[H+],water,298,-0.003669443,mol/L
[Li+].[OH-],water,298,0.921760746,mol/L
[Na+].[O-][N+](=O)c1cccc(c1)[S]([O-])(=O)=O,water,298,-0.051455458,mol/L
CCCOC(C)=O,water,298,-0.699535921,mol/L
CC1=CC(=O)CC(C)(C)C1=O,water,298,-0.87790415,mol/L
[K+].O[B-](O)(F)F,water,298,-0.782878897,mol/L
OCCOCC#CCOCCO,water,298,0.758961822,mol/L
OC(=O)c1cc(cc(c1O)[N+]([O-])=O)[N+]([O-])=O,water,298,-1.057125752,mol/L
OCCc1ccccc1,water,298,-0.785923914,mol/L
CCOc1ccc(N)cc1,water,298,-0.836267135,mol/L
C[Si](C)(C)N[Si](C)(C)C,water,298,-0.906865462,mol/L
CC(=O)OC=C,water,298,-0.633922712,mol/L
CCOC(=O)C(Cl)C(C)=O,water,298,-0.915368172,mol/L
CCOC(=O)CC#N,water,298,-0.752494044,mol/L
CCOC(=O)C=C,water,298,-0.699477832,mol/L
Oc1ccccc1C#N,water,298,-0.774965627,mol/L
[Na+].Nc1c(cc(Br)c2C(=O)c3ccccc3C(=O)c12)[S]([O-])(=O)=O,water,298,-1.305537302,mol/L
C[Si](C)C,water,298,-0.563427685,mol/L
OCCOCCO.O=C1OC(=O)c2ccccc12,water,298,-1.405240463,mol/L
[Na+].[Na+].[Fe].Nc1ccc(cc1)[N+]([O-])=O.Nc2cccc(c2)[S]([O-])(=O)=O.Nc3ccc(Nc4ccccc4)c(c3)[S]([O-])(=O)=O.OC\5=CC(=O)C=CC5=N/Nc6cc(cc(c6O)[N+]([O-])=O)[N+]([O-])=O,water,298,-2.526815423,mol/L