Solute,Solvent,Temperature_K,Solubility,Units
CN2C(=C(O)c1ccccc1S2(=O)=O)C(=O)Nc3ccccn3,water,298,-4.16,mol/L
c1c(S(=O)(=O)N)c(Cl)cc(O)c1C(=O)Nc2c(C)cccc2C,water,298,-3.79,mol/L
OC(=O)c1ccccc1Nc2c(C)c(C)ccc2,water,298,-3.78,mol/L
COc1ccc(cc1)C(O)(C2CC2)c3cncnc3,water,298,-2.6,mol/L
COc1ccc2C=CC(=O)Oc2c1CC=C(C)C,water,298,-4.31,mol/L
O=C(OC(C(C(C=CC1=O)(CC2)C)=C1C)C23)C3C,water,298,-3.09,mol/L
O=C(NC(CCCC1)C1)NS(=O)(=O)c(ccc(c2)C(=O)C)c2,water,298,-2.06,mol/L
CCOC(=O)C1(CCN(C)CC1)c2ccccc2,water,298,-1.89,mol/L
COCC(=O)N(C(C)C(=O)OC)c1c(C)cccc1C,water,298,-1.6,mol/L
O=C(Nc(c(ccc1)C)c1C)C(N(CCC2)C)C2,water,298,-1.55,mol/L
c1cc(OCC)ccc1C(=O)OCCN(CC)CC,water,298,-2.71,mol/L
C1CCN2CC(C3)C4CCCCN4CC3C2C1,water,298,-1.89,mol/L
O=C(O)CCCCCCCCCCCCCC,water,298,-4.31,mol/L
CC2Nc1cc(Cl)c(cc1C(=O)N2c3ccccc3C)S(N)(=O)=O,water,298,-3.78,mol/L
COc2ccc(Oc1ccc(NC(=O)N(C)C)cc1)cc2,water,298,-4.16,mol/L
c1c(C(C)(C)C)cc(C(C)(C)C)cc1OC(=O)NC,water,298,-4.24,mol/L
OCCCCCCCCCCCCCCCC,water,298,-7.26,mol/L
C(O)(c1ccc(Br)cc1)(c2ccc(Br)cc2)C(=O)OC(C)C,water,298,-4.93,mol/L
CN(C)CCCN2c1ccccc1Sc3ccc(C(F)(F)F)cc23,water,298,-5.3,mol/L
O=C(N(CCCC1)C1)C=CC=Cc(ccc(OCO2)c23)c3,water,298,-3.46,mol/L
CN1C2CC(CC1C3OC23)OC(=O)C(CO)c4ccccc4,water,298,-0.48,mol/L
O=C(OC(CC(N(C1C2)C)C2)C1)C(c(cccc3)c3)CO,water,298,-1.91,mol/L
CCCCOCN(C(=O)CCl)c1c(CC)cccc1CC,water,298,-4.19,mol/L
c1c(O)cc2ccc3C4CCC(=O)C4(C)CCc3c2c1,water,298,-5.24,mol/L
c1c(O)cc2CC=C3C4CCC(=O)C4(C)CCC3c2c1,water,298,-5.28,mol/L
c1c(OC)c(O)c2C3(C4)CC(=O)C=CC3C(N(C)C4)Cc2c1,water,298,-1.87,mol/L
CNCCCN2c1ccccc1CCc3ccccc23,water,298,-3.66,mol/L
c1c(O)cc2CCC3C4CCC(O)C4(C)CCC3c2c1,water,298,-4.84,mol/L
C1CCC(CC1)[Sn](C2CCCCC2)C3CCCCC3.O,water,298,-5.59,mol/L
O=C(O)CCCCCCCCCCCCCCCCC,water,298,-5.68,mol/L
c1ccc2C(O)=C(C(c3ccccc3)CC(=O)C)C(=O)Oc2c1,water,298,-3.89,mol/L
CC(=O)CCC1C(=O)N(c2ccccc2)N(c3ccccc3)C1=O,water,298,-3.27,mol/L
OC(c(c(c(nc1)ccc2)c2)c1)C(N(CCC3C4C=C)C4)C3,water,298,-3.07,mol/L
c1ccc2Sc3ccccc3N(CC4CN(C)CCC4)c2c1,water,298,-4.74,mol/L
CN(C=Nc1ccc(C)cc1C)C=Nc2ccc(C)cc2C,water,298,-5.47,mol/L
c1ccc2Sc3ccc(OC)cc3N(CC(C)CN(C)C)c2c1,water,298,-4.22,mol/L
C1C(=O)C=C2CCC3C4CCC(=O)C4(C)CC(=O)C3C2(C)C1,water,298,-3.48,mol/L
C1C(O)CC2=CCC3C4CCC(=O)C4(C)CCC3C2(C)C1,water,298,-4.12,mol/L
O=C1C2(C(C3CCC4C(C3CC2)(C)CCCC4)CC1)C,water,298,-6.7,mol/L
C1C(O)CC2CCC3C4CCC(=O)C4(C)CCC3C2(C)C1,water,298,-4.4,mol/L
C1C(O)CC2CCC3C4CCC(=O)C4(C)CC(O)C3C2(C)C1,water,298,-3.59,mol/L
COC(C)(C)CCCC(C)CC=CC(C)=CC(=O)OC(C)C,water,298,-5.19,mol/L
CN(C)CCC=C2c1ccccc1CCc3ccccc23,water,298,-4.46,mol/L
O(c(ccc(nccc1C(O)C(N(CCC2C3C=C)C3)C2)c14)c4)C,water,298,-3.37,mol/L
OC(C#C)(C(C(C(C(c(c(cc(O)c1)C2)c1)C3)C2)C4)(C3)C)C4,water,298,-4.3,mol/L
c1ccc2N(C)C3C4CC5C(CC)C(O)N4C(C56)CC3(C6O)c2c1,water,298,-2.82,mol/L
c1c(OC)cc2c(CC(=O)O)c(C)n(C(=O)C=Cc3ccccc3)c2c1,water,298,-5.54,mol/L
CC1(C)C(C=C(Cl)Cl)C1C(=O)OCc3cccc(Oc2ccccc2)c3,water,298,-6.29,mol/L
c1cc(O)c2C(=O)C3=C(O)C4(O)C(=O)C(C(=O)N)=C(O)C(N(C)C)C4CC3C(O)c2c1Cl,water,298,-2.52,mol/L
c1ccc2Sc3ccc(C(#N))cc3N(CCCN4CCC(O)CC4)c2c1,water,298,-3.98,mol/L
C1C(=O)C=C2CCC3C4CCC(C(=O)CO)C4(C5O)CC(O5)C3C2(C)C1,water,298,-3.85,mol/L
C1C(OC(=O)C)CC2=CCC3C4CCC(=O)C4(C)CCC3C2(C)C1,water,298,-4.46,mol/L
CC(=O)OCC(=O)C3(O)CCC4C2CCC1=CC(=O)CCC1(C)C2C(=O)CC34C,water,298,-4.0,mol/L
C1C(O)CC2=CCC3C4CCC(C(=O)C)C4(C)CCC3C2(C)C1,water,298,-4.65,mol/L
O=C(N)C(=C(O)C(N(C)C)C(C1(O)C(O)=C(C2C(O)(c(c3c(O)cc4)c4Cl)C)C3=O)C2)C1=O,water,298,-2.88,mol/L
COc2ccc1C(OC(=O)c1c2OC)C4N(C)CCc5cc3OCOc3c(OC)c45,water,298,-3.14,mol/L
CC3C2C(O)C1C(N(C)C)C(=C(C(N)=O)C(=O)C1(O)C(=C2C(=O)c4c(O)cccc34)O)O,water,298,-2.87,mol/L
O=C(OC(C(C(C(C(C(C(=CC(=O)C1)C2)(C1)C)C3)C2)C4)(C3)C)C4)CC,water,298,-5.37,mol/L
COc5cc4OCC3Oc2c1CC(Oc1ccc2C(=O)C3c4cc5OC)C(C)=C,water,298,-4.42,mol/L
CC(C)=CC3C(C(=O)OCc2cccc(Oc1ccccc1)c2)C3(C)C,water,298,-5.24,mol/L
O=C1C=C2C(Cl)=CC3C4CCC(C(=O)C)(OC(=O)C)C4(C)CCC3C2(C)C=C1,water,298,-4.95,mol/L
CC(=O)OCCN4CCN(CCCN2c1ccccc1Sc3ccc(Cl)cc23)CC4,water,298,-4.7,mol/L
O=C1C=C2CCC3C4CCC(O)(C(=O)COC(=O)C(C)(C)C)C4(C)CC(O)C3C2(C)C=C1,water,298,-4.58,mol/L
O=C(NCC(=O)O)CCC(C(C(C(C(C(C(C(C1)CC(O)C2)(C2)C)C3)C1O)C4)(C3O)C)C4)C,water,298,-5.15,mol/L
c12C(=O)C3=C(O)C4(O)C(=O)C=C(O)C(N(C)C)C4CC3C(O)(C)c1cccc2,water,298,-1.42,mol/L
C1C(=O)C=C2CCC3C4CCC(O)(C(=O)COC(=O)CC(C)(C)C)C4(C)CC(O)C3C2(C)C1,water,298,-5.51,mol/L
O1C(C)C(O)C(N)C(O)C1OC2C=CC=CC=CC=CCC(C)OC(=O)C=CC(O3)C3CC(O)CC4(O)OC(C(C(=O)O)C(O)C4)C2,water,298,-3.21,mol/L
CCC(C)CC,water,298,-3.68,mol/L
CC(C)CC(C)C,water,298,-4.26,mol/L
CCCC=C,water,298,-2.68,mol/L
C1CC=CCC1,water,298,-2.59,mol/L
C=CCC=C,water,298,-2.09,mol/L
C1=CC=CC=CC1,water,298,-2.15,mol/L
CCCCCCC#C,water,298,-3.66,mol/L
c1ccccc1CC,water,298,-2.77,mol/L
c1c(C)cc(C)cc1C,water,298,-3.4,mol/L
c(c(ccc1)CC2)(c1)C2,water,298,-3.04,mol/L
c1ccccc1CC(C)C,water,298,-4.12,mol/L
c1ccccc1CCCCCC,water,298,-5.21,mol/L
c1ccccc1CCc2ccccc2,water,298,-4.62,mol/L
c1ccc2ccccc2c1CC,water,298,-4.17,mol/L
c1c(C)cc2ccccc2c1C,water,298,-4.29,mol/L
c(c(ccc1)cc(c2ccc3)c3)(c1)c2,water,298,-6.35,mol/L
Cc2c1ccccc1c(C)c3ccccc23,water,298,-6.57,mol/L
c(c(cc(c1ccc2)c2)cc(c3ccc4)c4)(c1)c3,water,298,-8.6,mol/L
c1ccc2ccc3c4ccccc4ccc3c2c1,water,298,-8.06,mol/L
c1ccc2ccc3nccnc3c2c1,water,298,-2.68,mol/L
Nc3cc2c1ccccc1ccc2c4ccccc34,water,298,-6.2,mol/L
c(c(ccc1C)cc(c2ccc3cccc4)c34)(c1CC5)c25,water,298,-7.92,mol/L
BrCBr,water,298,-1.17,mol/L
ClC(Cl)(Cl)Cl,water,298,-2.31,mol/L
ClCCCl,water,298,-1.06,mol/L
ClC(Cl)C(Cl)Cl,water,298,-1.74,mol/L
CCCCl,water,298,-1.47,mol/L
CC(I)C,water,298,-2.09,mol/L
BrCC(Br)C,water,298,-2.15,mol/L
BrCCCC,water,298,-2.37,mol/L
CC(Cl)C(Cl)C,water,298,-2.7,mol/L
BrCCC(C)C,water,298,-2.89,mol/L
CCCCCCCCBr,water,298,-5.06,mol/L
CCCCCCCBr,water,298,-4.43,mol/L
BrC=CBr,water,298,-1.32,mol/L
ClC1C=CC2C1C3(Cl)C(=C(Cl)C2(Cl)C3(Cl)Cl)Cl,water,298,-6.32,mol/L
ClC(Cl)=C(Cl)C(Cl)=C(Cl)Cl,water,298,-4.91,mol/L
c1ccccc1Br,water,298,-2.55,mol/L
c1cccc(Cl)c1Br,water,298,-3.19,mol/L
c1ccc(Br)cc1Br,water,298,-3.54,mol/L
c1cc(Br)cc(Br)c1Br,water,298,-4.5,mol/L
c1c(Cl)c(Cl)c(Cl)c(Cl)c1Cl,water,298,-5.65,mol/L
c1ccc(F)cc1F,water,298,-2.0,mol/L
c1ccccc1c2ccc(Cl)cc2,water,298,-5.2,mol/L
c1cc(Cl)ccc1c2c(Cl)cccc2,water,298,-5.28,mol/L
c1cccc(Cl)c1c2c(Cl)ccc(Cl)c2,water,298,-6.02,mol/L
c1cc(Cl)c(Cl)cc1c2c(Cl)cccc2,water,298,-6.29,mol/L
c1ccccc1c2c(Cl)c(Cl)c(Cl)c(Cl)c2,water,298,-7.16,mol/L
c1c(Cl)ccc(Cl)c1c2c(Cl)cccc2Cl,water,298,-6.8,mol/L
c1c(Cl)ccc(Cl)c1c2c(Cl)c(Cl)c(Cl)cc2,water,298,-7.91,mol/L
Clc1c(Cl)c(Cl)c(Cl)c(Cl)c1c2ccccc2,water,298,-7.92,mol/L
c1c(Cl)ccc(Cl)c1c2c(Cl)c(Cl)c(Cl)c(Cl)c2,water,298,-7.68,mol/L
c1cc(Cl)c(Cl)c(Cl)c1c2c(Cl)c(Cl)c(Cl)cc2,water,298,-8.01,mol/L
Clc1c(Cl)cc(Cl)c(Cl)c1c2c(Cl)c(Cl)cc(Cl)c2Cl,water,298,-9.15,mol/L
ClC(Cl)C(c1ccc(Cl)cc1)c2ccc(Cl)cc2,water,298,-7.2,mol/L
c(c(ccc1Br)ccc2)(c2)c1,water,298,-4.4,mol/L
CCCC(O)C,water,298,-0.29,mol/L
OCC(C)(C)C,water,298,-0.4,mol/L
CC(C)C(C)CO,water,298,-0.39,mol/L
OC(C(C)(C)C)C,water,298,-0.62,mol/L
OC(CCCCC)C,water,298,-1.55,mol/L
OCC(C)CC(C)C,water,298,-1.6,mol/L
CC(C)C(O)(C)CC,water,298,-1.22,mol/L
CC(O)(C)C(C)(C)C,water,298,-0.72,mol/L
CCC(C)(O)CCCC,water,298,-1.6,mol/L
OCCCCCCCCCC,water,298,-3.63,mol/L
OCc(ccc(c1)C)c1,water,298,-1.2,mol/L
Oc(c(O)ccc1)c1,water,298,0.62,mol/L
c1ccc(C)cc1O,water,298,-0.68,mol/L
Oc(c(ccc1C)C(C)C)c1,water,298,-2.22,mol/L
Oc(ccc(c1ccc2)c2)c1,water,298,-2.28,mol/L
CCCC=O,water,298,-0.01,mol/L
O=CCCCCCCCC,water,298,-3.17,mol/L
O=CC(OC=C1)=C1,water,298,-0.1,mol/L
O=C(CCCC1)C1,water,298,-0.6,mol/L
O=C(CCCCCCC)C,water,298,-2.58,mol/L
C1(=O)C=CC(=O)C=C1,water,298,-0.99,mol/L
O=C(c(cccc1)c1)c(cccc2)c2,water,298,-3.12,mol/L
O=C(O)CCC(=O)O,water,298,-0.2,mol/L
CCCCCCCCCC(=O)O,water,298,-3.44,mol/L
O=C(O)c(cccc1C)c1,water,298,-2.14,mol/L
O=C(O)C=Cc(cccc1)c1,water,298,-2.48,mol/L
O=C(O)Cc(c(c(ccc1)cc2)c1)c2,water,298,-2.65,mol/L
O=C(O)C(c(cccc1)c1)c(cccc2)c2,water,298,-3.22,mol/L
O=C(O)CCCCCCCCCCCCC,water,298,-5.33,mol/L
O=COCC,water,298,0.15,mol/L
O=C(OCC)CC,water,298,-0.66,mol/L
O=C(OCC)CCC,water,298,-1.28,mol/L
O=C(OCCC)CCC,water,298,-1.92,mol/L
O=C(OCC)CCCCC,water,298,-2.31,mol/L
O=C(OCC)CCCCCCCC,water,298,-3.8,mol/L
O=C(OC)c(cccc1)c1,water,298,-1.85,mol/L
O=C(OCCCC)c(c(ccc1)C(=O)OCCCC)c1,water,298,-4.4,mol/L
CCOCC,water,298,-0.09,mol/L
COC(C)(C)C,water,298,-0.24,mol/L
CCCOC(C)C,water,298,-1.34,mol/L
c1ccccc1OC,water,298,-1.85,mol/L
O(C1c(cccc2)c2)C1,water,298,-1.6,mol/L
CCCCOCCO,water,298,-0.42,mol/L
O=C(C(O)(C(C(C(C(C(C(=CC(=O)C1)C2)(C1)C)C3O)C2)C4)(C3)C)C4)CO,water,298,-2.97,mol/L
O=C1C=C2CCC3C4CCC(O)(C(=O)COC(=O)C)C4(C)CC(O)C3C2(C)C=C1,water,298,-4.37,mol/L
C1C(=O)C=C2CCC3C4CCC(C(=O)CO)C4(C)CCC3C2(C)C1,water,298,-3.75,mol/L
CC12CC(O)C3(F)C(CCC4=CC(=O)CCC43C)C2CCC1(O)C(=O)CO,water,298,-3.43,mol/L
O=C(O)c(c(O)ccc1)c1,water,298,-1.82,mol/L
O=C(OCC)c(ccc(O)c1)c1,water,298,-2.35,mol/L
Oc(c(ccc1)Cl)c1,water,298,-1.06,mol/L
Clc1cc(Cl)cc(Cl)c1O,water,298,-2.34,mol/L
O=C(O)c(ccc(c1)Cl)c1,water,298,-3.31,mol/L
ClC4=C(Cl)C5(Cl)C3C1CC(C2OC12)C3C4(Cl)C5(Cl)Cl,water,298,-6.29,mol/L
CCCCCCN,water,298,-1.1,mol/L
CCCCCCCCN,water,298,-2.75,mol/L
c1ccccc1NC,water,298,-1.28,mol/L
c1ccccc1N(C)C,water,298,-1.92,mol/L
c(c(c(N)cc1)ccc2)(c2)c1,water,298,-1.92,mol/L
c1c(C)ccc(C)n1,water,298,0.4,mol/L
c1ccc2cnccc2c1,water,298,-1.45,mol/L
O=C(O)c(cccn1)c1,water,298,-0.84,mol/L
n1c(C)nc(N)cc1C,water,298,-1.28,mol/L
N(c(c(S1)ccc2)c2)=C1S,water,298,-3.18,mol/L
c1c(O)cc2cccnc2c1,water,298,-2.16,mol/L
CCC1(CC)C(=O)NC(=O)N(C)C1=O,water,298,-2.23,mol/L
O=C(OC(CC(N(C1C2)C)C2)C1)C(c(cccc3)c3)CO,water,298,-2.12,mol/L
NS(=O)(=O)c2cc(C(O)=O)c(NCc1ccco1)cc2Cl,water,298,-3.66,mol/L
CCC1(CCC(C)C)C(=O)NC(=O)NC1=O,water,298,-2.57,mol/L
OCCN4CCN(CCCN2c1ccccc1Sc3ccc(Cl)cc23)CC4,water,298,-4.16,mol/L
CC(=O)Nc1nnc(S(=O)(=O)N)s1,water,298,-2.36,mol/L
CN1CCC=C(C(=O)OC)C1,water,298,0.81,mol/L
C(C)(C)C1(CC)C(=O)NC(=O)NC1(=O),water,298,-2.21,mol/L
COc2ccc(NS(=O)(=O)c1ccc(N)cc1)nn2,water,298,-3.28,mol/L
N(C(=S)SSC(N(CC)CC)=S)(CC)CC,water,298,-4.86,mol/L
COC1=CC(=O)CC(C)C13Oc2c(Cl)c(OC)cc(OC)c2C3=O,water,298,-4.61,mol/L
c1cc(N)ccc1S(=O)(=O)Nc2nnc(C)s2,water,298,-2.41,mol/L
O=C(N(c(c(C1(C(N(C2)CC(C3C4C5OC6)=C6)C3)C2)cc(OC)c7OC)c7)C14)C5,water,298,-2.09,mol/L
Nc1ccc(cc1)S(=O)(=O)Nc2ccnn2c3ccccc3,water,298,-2.32,mol/L
Cc1cc(NS(=O)(=O)c2ccc(N)cc2)no1,water,298,-2.62,mol/L
c1cc(N)ccc1S(=O)(=O)Nc2nc(C)nc(OC)c2,water,298,-2.54,mol/L
c1ccccc1NC(=O)C2=C(C)OCCS2(=O)=O,water,298,-2.43,mol/L
O=C(c(cccc1C(C(=O)O)C)c1)c(cccc2)c2,water,298,-3.7,mol/L
CN1C(=O)N(C)c2ncn(C)c2C1(=O),water,298,-0.97,mol/L
CC1CC(C)C(=O)C(C1)C(O)CC2CC(=O)NC(=O)C2,water,298,-1.13,mol/L
N(CCNC1)C1,water,298,1.07,mol/L
O=C(NCC1=O)N1,water,298,-0.4,mol/L
O=C1CCCN1C,water,298,1.0,mol/L
c1cccc(N)c1O,water,298,-0.72,mol/L
O=C(OCC)N,water,298,0.85,mol/L
O=C(Oc(c(c(ccc1)cc2)c1)c2)NC,water,298,-3.28,mol/L
O=C(NC)N,water,298,1.13,mol/L
O=C(N)C=C,water,298,0.96,mol/L
O=C(Nc(ccc(O)c1)c1)C,water,298,-1.03,mol/L
CC(C)N(=O)=O,water,298,-0.62,mol/L
O=N(=O)c(c(c(ccc1)cc2)c1)c2,water,298,-3.54,mol/L
O=C(O)c(ccc(N(=O)=O)c1)c1,water,298,-2.8,mol/L
O=N(=O)c(c(N)ccc1)c1,water,298,-1.96,mol/L
Clc(cccc1N)c1,water,298,-1.37,mol/L
N#Cc(c(c(c(c1C#N)Cl)Cl)Cl)c1Cl,water,298,-5.64,mol/L
CN1C=C(c2ccccc2)C(=O)C(c3cc(C(F)(F)F)ccc3)=C1,water,298,-4.44,mol/L
CCC(=O)Nc1ccc(Cl)c(Cl)c1,water,298,-3.0,mol/L
CCc1cccc(CC)c1N(COC)C(=O)CCl,water,298,-3.26,mol/L
NC(=S)N,water,298,0.32,mol/L
COC(=O)NS(=O)(=O)c1ccc(N)cc1,water,298,-1.66,mol/L
COP(=O)(OC)C(O)C(Cl)(Cl)Cl,water,298,-0.22,mol/L
COP(=S)(OC)Oc1ccc(SC)c(C)c1,water,298,-4.57,mol/L
COP(=S)(OC)Oc1ccc(N(=O)=O)c(C)c1,water,298,-4.04,mol/L
COP(=S)(OC)Oc1cc(Cl)c(I)cc1Cl,water,298,-6.62,mol/L
C1C(O)CC2C(O)C(O)C3C4CCC(C(C)CCC(=O)O)C4(C)CCC3C2(C)C1,water,298,-4.35,mol/L
N(CCNC1C)C1,water,298,0.74,mol/L
O=C(Nc(ccc(c1)Cl)c1)C,water,298,-2.84,mol/L
O=C(Nc(ccc(c1)N(=O)=O)c1)C,water,298,-2.69,mol/L
COc2ccc1C(OC(=O)c1c2OC)C4N(C)CCc5cc3OCOc3cc45,water,298,-4.11,mol/L
O=C3CN=C(c1ccccc1)c2cc(ccc2N3)N(=O)=O,water,298,-3.8,mol/L
Oc(c(cc(c1)Cl)Cc(c(O)ccc2Cl)c2)c1,water,298,-3.95,mol/L
Nc1c(Cl)c(Cl)nc(C(O)=O)c1Cl,water,298,-2.75,mol/L
O=C(O)C(N)Cc(ccc(O)c1)c1,water,298,-2.57,mol/L
CC(C)N(C(C)C)C(=O)SCC(Cl)=CCl,water,298,-4.08,mol/L
O=C(OCCCC)c(ccc(O)c1)c1,water,298,-2.72,mol/L
O=C(OCCC)c(cc(O)c(O)c1O)c1,water,298,-1.78,mol/L
CCCCCOC(=O)c1ccc(N)cc1,water,298,-3.26,mol/L
c(c(cccc1)c1)(ccc(c(cccc2)c2)c3)c3,water,298,-7.11,mol/L
O=C(Nc(c(ccc1)Cl)c1)C,water,298,-1.4,mol/L
N(C(CCC1)CC)C1,water,298,-1.5,mol/L
O(c(ccc(c1)CC=C)c1)C,water,298,-2.92,mol/L
Clc1c(Cl)c(Cl)c(Cl)c(O)c1OC,water,298,-4.02,mol/L
O=C(NC(=S)S1)C1,water,298,-1.77,mol/L
N1C(=O)N=C(N)C=C1,water,298,-1.14,mol/L
O=C(O)C(N)CC(=O)N,water,298,-0.74,mol/L
CCS(=O)(=O)CC,water,298,0.04,mol/L
n1ccc(O)cc1,water,298,1.02,mol/L
N1C(=O)NC(=O)C=C1C,water,298,-1.26,mol/L
O(C(O)C(O)C(O)C1O)C1,water,298,0.39,mol/L
c1cnc2c(S)ncnc2n1,water,298,-2.36,mol/L
O=S(=O)(N)c(cccc1)c1,water,298,-1.56,mol/L
N(C(=S)SSC(N(C)C)=S)(C)C,water,298,-3.9,mol/L
N1C(C)CNC(C)C1,water,298,0.49,mol/L
O=C(O)c(cccc1I)c1,water,298,-3.27,mol/L
c1cnc2c(OC)ncnc2n1,water,298,-1.11,mol/L
c1c(SC)nc2cncnc2n1,water,298,-1.55,mol/L
N1C(=S)NC(=O)C=C1CCC,water,298,-2.15,mol/L
Clc1c(Cl)c(Cl)c2nccnc2c1Cl,water,298,-5.43,mol/L
O=C(O)COc(c(cc(c1)Cl)Cl)c1,water,298,-2.51,mol/L
O=C(OC)c(c(O)ccc1)c1,water,298,-2.34,mol/L
O=C(O)c(c(NC)ccc1)c1,water,298,-2.88,mol/L
c1ccccc1OCC,water,298,-2.33,mol/L
CC(C)CC(=O)CC(=O)C,water,298,-1.6,mol/L
C1C(C)C(C)CCC1,water,298,-4.27,mol/L
OC(=O)CN1C(=O)Sc2cccc(Cl)c12,water,298,-2.61,mol/L
OC(=O)C(Oc1cc(Cl)ccc1)C,water,298,-2.22,mol/L
O=C(OC)c(ccc(OC)c1)c1,water,298,-2.41,mol/L
CCOc1ccc(NC(N)=O)cc1,water,298,-2.17,mol/L
O=C(O)CCCCCCCC,water,298,-2.75,mol/L
c1ccccc1N2C(=O)C(Cl)=C(N)C=N2,water,298,-2.87,mol/L
O=S(=O)(Nc(nccc1)n1)c(ccc(N)c2)c2,water,298,-3.51,mol/L
CC(=O)Nc1ccc(OC(C)=O)cc1,water,298,-1.91,mol/L
Oc1cc2CCCCc2cc1,water,298,-1.99,mol/L
Oc(c(ccc1C(C)C)C)c1,water,298,-2.08,mol/L
O=C(C(CC1C2)(C2)C)C1(C)C,water,298,-1.85,mol/L
O=C(C(CCC1C)C(C)C)C1,water,298,-2.49,mol/L
n(c(c(c(c1)C)ccc2)c2)c1C,water,298,-1.94,mol/L
CCN(CC)c1c(cc(c(N)c1N(=O)=O)C(F)(F)F)N(=O)=O,water,298,-5.47,mol/L
C1=CC(C2)C(C(=O)OC)C(C(=O)OC)C12,water,298,-1.2,mol/L
c1ccccc1S(=O)(=O)NC(=O)NCCCC,water,298,-3.05,mol/L
CCCCc1c(C)nc(NCC)nc1O,water,298,-3.02,mol/L
c1ccc2C(=O)C(Cl)=C(NC(=O)C(Cl)Cl)C(=O)c2c1,water,298,-5.03,mol/L
O=C1C=CC(c2cc(ccc2O)O)(C=C1)O,water,298,-1.73,mol/L
Oc(c(ccc1O)CCCCCC)c1,water,298,-2.59,mol/L
Ic1ccccc1C(=O)Nc2ccccc2,water,298,-4.21,mol/L
CCCCN(CC)c1c(cc(cc1N(=O)=O)C(F)(F)F)N(=O)=O,water,298,-5.53,mol/L
CCCCc1c(C)nc(NCC)nc1OS(=O)(=O)N(C)C,water,298,-4.16,mol/L
O=C(O)c(c(c(c(ccc1)C(=O)O)c1)ccc2)c2,water,298,-2.28,mol/L
c1ccccc1C(=O)Oc2ccccc2,water,298,-2.85,mol/L
O=C(C(C(=O)c(c1ccc2)c2)C1=O)C(C)(C)C,water,298,-4.11,mol/L
CN(C)CCN(Cc1cccs1)c2ccccn2,water,298,-2.64,mol/L
Oc1cc(O)c2C(=O)C(O)=C(c3ccc(O)cc3O)Oc2c1,water,298,-3.08,mol/L
NS(=O)(=O)c3cc2c(NC(Cc1ccccc1)NS2(=O)=O)cc3C(F)(F)F,water,298,-3.59,mol/L
CC(C)Oc1cc(c(Cl)cc1Cl)N2N=C(OC2=O)C(C)(C)C,water,298,-5.69,mol/L
CCc1cccc(C)c1N(C(C)COC)C(=O)CCl,water,298,-2.73,mol/L
O=C1C=C2CC3(O)COc4c(O)c(O)ccc4C3=C2C=C1O,water,298,-2.7,mol/L
n(cc(C(O)(c(ccc(c1)Cl)c1)c(c(ccc2)Cl)c2)cn3)c3,water,298,-4.38,mol/L
N1CCN=C1CN(c2ccccc2)Cc3ccccc3,water,298,-2.6,mol/L
c1cc(O)ccc1C(C=C)C(C=C)c2ccc(O)cc2,water,298,-4.95,mol/L
c1cc(O)ccc1C(CC)C(CC)c2ccc(O)cc2,water,298,-4.43,mol/L
c12ccccc1nccc2C(O)C3N(C4)CCC(C4CC)C3,water,298,-2.63,mol/L
C1(S5)C5CC2CCC3C4CCC(O)C4(C)CCC3C2(C)C1,water,298,-5.41,mol/L
CN4CCN(CCCN2c1ccccc1Sc3ccc(Cl)cc23)CC4,water,298,-4.4,mol/L
O=C(O)C(C(C(C(C(=C1)C=C(C2)C(C)C)C2)(CC3)C)C1)(C3)C,water,298,-3.8,mol/L
C1C(=O)C=C2CCC3C4CCC(O)(C#C)C4(C)CCC3C2(C)C1,water,298,-5.66,mol/L
c1ccc2OC(=O)C(C(C(=O)OCC)C3=C(O)c4ccccc4OC3=O)=C(O)c2c1,water,298,-3.66,mol/L
NCCC(O)C(=O)NC2CC(N)C(OC1OC(CN)C(O)C(O)C1O)C(O)C2OC3OC(CO)C(O)C(N)C3O,water,298,-0.5,mol/L
c1c(Cl)ccc(OC)c1C(=O)NCCc2ccc(S(=O)(=O)NC(=O)NC3CCCCC3)cc2,water,298,-5.09,mol/L
C1C(O)CC2=CCC3C4CC5OC6(OCC(C)CC6)C(C)C5C4(C)CCC3C2(C)C1,water,298,-7.32,mol/L
Clc1ccc(Cl)c(c1)c2cc(Cl)c(Cl)cc2Cl,water,298,-7.89,mol/L
O=C(OCC)c(ccc(N)c1)c1,water,298,-2.32,mol/L
O=C(Oc(c(ccc1)C(=O)O)c1)C,water,298,-1.72,mol/L
c1ccccc1N2C(=O)C=C(C)N2C,water,298,-0.56,mol/L
n(c(nc(n1)NC(C)C)NCC)c1Cl,water,298,-3.85,mol/L
CCC1(C(=O)NC(=O)NC1=O)c2ccccc2,water,298,-2.34,mol/L
O=C(N(C)C)Nc(ccc(c1Cl)Cl)c1,water,298,-3.8,mol/L
O=C(N(N=CC(OC(N(=O)=O)=C1)=C1)CC2=O)N2,water,298,-3.47,mol/L
O=C1NC(=O)C(N1)(c2ccccc2)c3ccccc3,water,298,-3.99,mol/L
O=C(N(c(c(cc(c1)Cl)C(=N2)c(cccc3)c3)c1)C)C2,water,298,-3.76,mol/L
C1C(=O)C=C2CCC3C4CCC(O)C4(C)CCC3C2(C)C1,water,298,-4.09,mol/L
C(C(C(C(C1Cl)Cl)Cl)Cl)(C1Cl)Cl,water,298,-4.6,mol/L
CCOP(=S)(OCC)Oc1ccc(cc1)N(=O)=O,water,298,-4.66,mol/L
O(P(OCC)(Oc(nc(nc1C)C(C)C)c1)=S)CC,water,298,-3.64,mol/L
O=C(OC(c1cccc2)(c(ccc(O)c3)c3)c(ccc(O)c4)c4)c12,water,298,-2.9,mol/L
CCOC(=O)CC(SP(=S)(OC)OC)C(=O)OCC,water,298,-3.37,mol/L
CCOP(=S)(OCC)Oc1nc(Cl)c(Cl)cc1Cl,water,298,-5.49,mol/L
CCCCCC(O)C=CC1C(O)CC(=O)C1CC=CCCCC(=O)O,water,298,-2.47,mol/L
c(ccc(c1)Cl)(c1)C(c(ccc(c2)Cl)c2)C(Cl)(Cl)Cl,water,298,-7.15,mol/L
ClC1CC2C(C1Cl)C3(Cl)C(=C(Cl)C2(Cl)C3(Cl)Cl)Cl,water,298,-6.86,mol/L
NC(=O)C1=CN=C2N1CCC1=C(C=CC=C1)C21CCNCC1,water,298,-2.43,mol/L
CC1=C2C=CC=CC2=C(CN2CCOCC2)C2=C1C=CC=C2,water,298,-4.4,mol/L
C1C[N+]2(CC3=CCOC4CC(=O)N5C6C4C3CC2C61C7=CC=CC=C75)O,water,298,-1.28,mol/L
CN1C2=C(C=CC=C2)SC2=C1C=CC=C2,water,298,-5.59,mol/L
O=C(O)CNC(=O)C1=CC=CC=C1,water,298,-1.74,mol/L
C1=CC=C(C2=NC3N=CN=CC3=N2)C=C1,water,298,-3.07,mol/L
C1=CC2=C(C=C1Cl)NC(=N2)C3=CC=C(O3)[N+](=O)[O-],water,298,-4.82,mol/L
O=C(O)CC1=C(C2=CC=C(Cl)C=C2)N=C(C2=CC=CC=C2)S1,water,298,-4.97,mol/L
CCOC1=NO[N+](=C1S(=O)(=O)C2=CC=CC=C2)[O-],water,298,-4.24,mol/L
CCOC(=O)C1=CC=C(O)C=C1,water,298,-1.96,mol/L
CCCOC(=O)C1=CC=C(O)C=C1,water,298,-2.71,mol/L
O=C1CC(=O)CC(C2=CC=CC=C2)C1,water,298,-2.51,mol/L
CCCCOC(=O)C1=CC=C(O)C=C1,water,298,-2.99,mol/L
COC(=O)C1=CC=C(C(=O)OC)C=C1,water,298,-3.55,mol/L
CC1=CC=C(S(=O)(=O)N(Cl)Cl)C=C1,water,298,-3.51,mol/L
O=C(O)COC1=C(Cl)C=C(Cl)C=C1Cl,water,298,-3.23,mol/L
CCC1OC(=O)C2=C1C=CC(C#N)=C2,water,298,-2.31,mol/L
CCNC1=NC(NCC)=NC(SC)=N1,water,298,-2.68,mol/L
O=P1(N(CCCl)CCCl)NCCCO1,water,298,-0.82,mol/L
CC1=NC2=C(C=CC=C2)N=C(C)C1,water,298,-1.37,mol/L
CC1=CC2=C(C=C1)S(=O)(=O)C=C2,water,298,-2.65,mol/L
CCCCOC(=O)C1=CC=C(N)C=C1,water,298,-3.06,mol/L
CC1=CC(=O)OC2=C3CCCN4CCCC(=C34)C=C12,water,298,-3.89,mol/L
CC1=NN=C2CN=C(C3=CC=CC=C3)C3=C(C=CC(Cl)=C3)N12,water,298,-3.43,mol/L
CCSC(=O)N1CCCCCC1,water,298,-2.37,mol/L
CC1=CS(=O)(=O)C2=C1C=CC=C2,water,298,-2.67,mol/L
CC1(C)SCC(COC(N)=O)S1,water,298,-2.22,mol/L
CCOC(=O)C1=C(C)C=C(C)N1,water,298,-2.62,mol/L
NC(=O)OCC1COC2(CCCCC2)O1,water,298,-1.89,mol/L
NC(=O)OCC1CSC2(CCCCC2)S1,water,298,-3.52,mol/L
NC(=O)N1C2=C(C=CC=C2)C=CC2=C1C=CC=C2,water,298,-3.01,mol/L
CC1=CC2=CC3=C(C=C2O1)OC(=O)C=C3C,water,298,-5.23,mol/L
CC1=CC2=CC=CC(O)=C2N=C1C,water,298,-3.32,mol/L
O=C(O)C1=NC2=CC=CC=C2C=C1,water,298,-1.09,mol/L
O=C(O)C1=CC=C2N=CC=CC2=C1,water,298,-0.04,mol/L
C1=CC2=C(C=C1)C1=C(C=NC=C1)N2,water,298,-3.73,mol/L
O=S(=O)(C1=CC=CC=C1)N(Br)Br,water,298,-3.28,mol/L
NC(=O)OCC1CSC2(CCCCC2)O1,water,298,-2.82,mol/L
O=C(O)C1=C2N=CC=CC2=CC=C1,water,298,-1.74,mol/L
O=C(O)C1=C2C=CC=NC2=CC=C1,water,298,-2.68,mol/L
CC(=O)CC(C1=CC=CC=C1)C1=C(O)C2=C(C=CC=C2)OC1=O,water,298,-4.9,mol/L
CC(C)C1OCC2(CO1)COC(C(C)C)OC2,water,298,-3.11,mol/L
COC1=CC(OC)=CC(OC)=C1,water,298,-2.68,mol/L
CCCCOC(=O)C1=CN=CC=C1,water,298,-1.84,mol/L
CSC1=NC2=NC=NC=C2N=C1,water,298,-1.55,mol/L
CSC1=NC=C2N=CC=NC2=N1,water,298,-1.76,mol/L
CC1=NC=C2N=C(C)C(C)=NC2=N1,water,298,-1.14,mol/L
O=C(O)CCN1C=CC=CC1=O,water,298,-0.6,mol/L
CC12C=CC(=O)C=C1CCC1C2C(O)CC2(C)C1CCC2(O)C(=O)CO,water,298,-3.1,mol/L
CC12CCC(=O)C=C1CCC1C2C(O)CC2(C)C1CCC2(O)C(=O)CO,water,298,-3.24,mol/L
CC12CCC(=O)C=C1CCC1C2C(=O)CC2(C)C1CCC2(O)C(=O)CO,water,298,-3.11,mol/L
O=P1(N(CCCl)CCCl)NCCCCO1,water,298,-0.96,mol/L
CC1(C)N=C(C2=CC=CC=C2)NC1=O,water,298,-0.85,mol/L
C1OC2=C(O1)C=C(C(=C2)CO)[N+](=O)[O-],water,298,-3.06,mol/L
COC(=O)C1=C(C(=O)C2=CC=CC=C2)C=CC=C1,water,298,-3.68,mol/L
C1=CC=C(CNC23OC4C5C6CC(C7C6C4C72)C53)C=C1,water,298,-3.4,mol/L