Solute,Solvent,Temperature_K,Solubility,Units
O=C1c2ccccc2C(=O)c3c4[nH]c5c(ccc6C(=O)c7c8[nH]c9c(ccc%10C(=O)c%11ccccc%11C(=O)c9%10)c8ccc7C(=O)c56)c4ccc13,water,298,-8.810645103,mol/L
[O--].[O--].[O--].[O--].[O--].[Al+3].[Al+3].[Co++].[Co++],water,298,-8.401098843,mol/L
[O--].[O--].[O--].[O--].[V].[Bi+3],water,298,-8.510435082,mol/L
O.[O--].[O--].[O--].[Fe+3].[Fe+3],water,298,-8.249692316,mol/L
CCCCCCCCCCCCOC(=O)C(C)=C,water,298,-8.405541006,mol/L
[Nb],water,298,-7.968043762,mol/L
CCCCCCCCCCCCCCCCCCOC(=O)C(C)=C,water,298,-8.52965617,mol/L
CCCCCCCCCCCCCCCCCCOC(=O)CCc1cc(c(O)c(c1)C(C)(C)C)C(C)(C)C,water,298,-8.724994728,mol/L
O=[Ti]=O,water,298,-7.902356496,mol/L
Oc1ccc(Nc2ccccc2)c3C(=O)c4c(c(O)ccc4[N+]([O-])=O)C(=O)c13,water,298,-8.646142991,mol/L
[Na+].Oc1ccc(cc1)[S]([O-])(=O)=O,water,298,-8.363189313,mol/L
CCCCCCCCCCCCCCCCOC(=O)CCCCCCCCCCCCCCC,water,298,-8.754650095,mol/L
CC(C)(C)c1ccc2OC(=O)C(c2c1)c3cc(ccc3OC(=O)c4cc(c(O)c(c4)C(C)(C)C)C(C)(C)C)C(C)(C)C,water,298,-8.848512617,mol/L
[Zr++].CCCCC(CC)C([O-])=O.CCCCC(CC)C([O-])=O,water,298,-8.702012126,mol/L
CCCCCCCC\C=C/CCCCCCCCCCCC(N)=O,water,298,-8.660335785,mol/L
CN1C(=O)C(=N/Nc2cccc(O[S](=O)(=O)c3ccccc3)c2)\C(=C(C#N)C1=O)C,water,298,-8.782716219,mol/L
[Be],water,298,-7.255851179,mol/L
[Nb],water,298,-8.269073758,mol/L
CCCCC(CC)C(=O)OCC(COC(=O)C(CC)CCCC)(COC(=O)C(CC)CCCC)COC(=O)C(CC)CCCC,water,298,-9.204759418,mol/L
[Au],water,298,-8.817272216,mol/L
COc1cc(N[S](=O)(=O)c2ccc(C)cc2)c3C(=O)c4ccccc4C(=O)c3c1N,water,298,-9.220953934,mol/L
[Zr++].CCCCC(CC)C([O-])=O.CCCCC(CC)C([O-])=O,water,298,-9.254854094,mol/L
CCCCCCCC/C=C/CCCCCCCCO[P+](=O)OCCCCCCCC\C=C\CCCCCCCC,water,298,-9.534419587,mol/L
[Nb],water,298,-8.791952503,mol/L
O=[Ce]=O,water,298,-9.145911087,mol/L
Brc1c(Br)c(Br)c(Oc2c(Br)c(Br)c(Br)c(Br)c2Br)c(Br)c1Br,water,298,-9.98189604,mol/L
CCCCC(CC)COC(=O)c1ccc(Nc2nc(Nc3ccc(cc3)C(=O)OCC(CC)CCCC)nc(Nc4ccc(cc4)C(=O)OCC(CC)CCCC)n2)cc1,water,298,-8.915448381,mol/L
[Zr+4].[Zr+4].[Zr+4].[O-][P]([O-])([O-])=O.[O-][P]([O-])([O-])=O.[O-][P]([O-])([O-])=O.[O-][P]([O-])([O-])=O,water,298,-9.815280148,mol/L
CCCCCCCCCCCCCCCCCCC1CC(=O)N(CCNCCNCCNCCN2C(=O)CC(CCCCCCCCCCCCCCCCCC)C2=O)C1=O,water,298,-10.23471717,mol/L
CCCCC(CC)COC(=O)c1c(Br)c(Br)c(Br)c(Br)c1C(=O)OCC(CC)CCCC,water,298,-10.14992573,mol/L
[Nb],water,298,-9.314831249,mol/L
ClCc1ccc(cc1)c2ccc(CCl)cc2,water,298,-10.09891356,mol/L
CN(C(=S)SSC(=S)N(C)c1ccccc1)c2ccccc2,water,298,-10.56179999,mol/L
CC(C)(C)CC(C)(C)c1cc(Cc2cc(cc(n3nc4ccccc4n3)c2O)C(C)(C)CC(C)(C)C)c(O)c(c1)n5nc6ccccc6n5,water,298,-11.11984357,mol/L
CCC(CC)O[N+]([O-])=O,water,298,-2.4522,mol/L
Oc1cc(Br)cc(C=O)c1,water,298,-3.2502,mol/L
[H+].[Cl-].CCOC(=O)C1(CCN(C)CC1)c2ccccc2,water,298,-1.6368,mol/L
CCC(O)(COC(N)=O)c1ccccc1,water,298,-0.9227,mol/L
CC(O)C(O)=O,water,298,1.0454,mol/L
C[C@]12CC[C@H]3[C@@H](CCc4cc(O)ccc34)[C@@H]1CC[C@@H]2O,water,298,-4.8789,mol/L
OC(=O)c1c(Cl)cccc1Cl,water,298,-1.1309,mol/L
OC(=O)c1c(Cl)ccc(Cl)c1Cl,water,298,-1.4666,mol/L
O=C1CCC(N2C(=O)c3ccccc3C2=O)C(=O)N1,water,298,-2.6758,mol/L
S=C1N=CNc2nc[nH]c12,water,298,-0.3468,mol/L
CNCCCN1c2ccccc2CCc3ccccc13,water,298,-3.6576,mol/L
CN(C)CCC=C1c2ccccc2CCc3ccccc13,water,298,-4.4559,mol/L
CO[C@H]1[C@@H](C[C@@H]2CN3CCc4c([nH]c5cc(OC)ccc45)[C@H]3C[C@@H]2[C@@H]1C(=O)OC)OC(=O)c6cc(OC)c(OC)c(OC)c6,water,298,-3.9208,mol/L
Oc1ccc(Cl)cc1C(=O)Nc2ccc(cc2Cl)[N+]([O-])=O,water,298,-5.3106,mol/L
NCCc1c[nH]c2ccc(O)cc12,water,298,-0.945,mol/L
OCC(O)C(O)C(O)C(O)CO,water,298,1.1789,mol/L
OC(=O)c1cc(Cl)c(Cl)cc1Cl,water,298,-2.4446,mol/L
OC(=O)c1ccc(Cl)cc1Cl,water,298,-2.6003,mol/L
OCC1OC(O)C(O)C(O)C1O,water,298,0.8235,mol/L
CCCCOCCOCCOCc1cc2OCOc2cc1CCC,water,298,-4.3742,mol/L
[nH]1cnc2ccccc12,water,298,-1.7701,mol/L
BrC1=CNC(=O)NC1=O,water,298,-2.3698,mol/L
CN1[C@@H]2CC(C[C@H]1C3OC23)OC(=O)[C@H](CO)c4ccccc4,water,298,-0.482,mol/L
CNC[C@H](O)c1ccc(O)c(O)c1.O[C@H]([C@@H](O)C(O)=O)C(O)=O,water,298,0.0,mol/L
CNC[C@H](O)c1ccc(O)c(O)c1,water,298,-3.0077,mol/L
CCCC1=CC(=O)NC(=S)N1,water,298,-2.1504,mol/L
COc1ccc(NC(C)=O)cc1,water,298,-1.0404,mol/L
CN(CCCl)CCCl,water,298,-1.1141,mol/L
CC(=O)O[C@]1(CC[C@H]2[C@@H]3CCC4=CC(=O)CC[C@@H]4[C@H]3CC[C@]12C)C#C,water,298,-4.8041,mol/L
CC(=O)S[C@@H]1CC2=CC(=O)CC[C@]2(C)[C@H]3CC[C@@]4(C)[C@@H](CC[C@@]45CCC(=O)O5)[C@H]13,water,298,-4.2773,mol/L
S=[P](N1CC1)(N2CC2)N3CC3,water,298,0.0018,mol/L
OCC(Br)(CO)[N+]([O-])=O,water,298,0.0969,mol/L
CO[P](=O)(OC)C(O)C(Cl)(Cl)Cl,water,298,-0.3315,mol/L
NC(CS)C(O)=O,water,298,0.3597,mol/L
C[C@]12CC[C@H]3[C@@H](CCc4cc(O)ccc34)[C@@H]1CCC2=O,water,298,-3.9548,mol/L
ClC(Cl)C(c1ccc(Cl)cc1)c2ccccc2Cl,water,298,-6.5052,mol/L
C[C@]12CC[C@@H](O)C[C@@H]1CC[C@@H]3[C@@H]2CC[C@@]4(C)[C@H]3CCC4=O,water,298,-4.3839,mol/L
C[C@]12CC[C@H]3[C@@H](CC=C4C[C@@H](O)CC[C@]34C)[C@@H]1CCC2=O,water,298,-3.6576,mol/L
COc1ccc2n(c(C)c(CC(O)=O)c2c1)C(=O)c3ccc(Cl)cc3,water,298,-5.5817,mol/L
CN1CCC[C@H]1c2cccnc2,water,298,0.7898,mol/L
[Na+].Oc1ccccc1C([O-])=O,water,298,-0.1075,mol/L
OCC1OC(CC1O)N2C=C(I)C(=O)NC2=O,water,298,-2.2481,mol/L
NC(Nc1ccc(Cl)cc1)=NC(N)=NCCCCCCN=C(N)N=C(N)Nc2ccc(Cl)cc2,water,298,-2.8006,mol/L
CN(C)c1ccc(cc1)N=Nc2cccc(C)c2,water,298,-5.7769,mol/L
CC(C)O[P](F)(=O)OC(C)C,water,298,-1.0777,mol/L
CC1=CC(=O)NC(=S)N1,water,298,-2.4259,mol/L
NCCCC(O)=O,water,298,1.1006,mol/L
C[C@@]12[C@H]3CC[C@H](O3)[C@]1(C)C(=O)OC2=O,water,298,-3.8156,mol/L
COc1ccc2nccc([C@H](O)[C@H]3C[C@@H]4CCN3C[C@@H]4C=C)c2c1,water,298,-3.365,mol/L
Nc1ncnc2n(cnc12)C3OC(CO[P](O)(=O)O[P](O)(=O)O[P](O)(O)=O)C(O)C3O,water,298,0.2948,mol/L
CCO[P](=S)(OCC)Oc1ccc2C(=C(Cl)C(=O)Oc2c1)C,water,298,-5.3835,mol/L
OCC(O)CO,water,298,1.0358,mol/L
NC(CC(O)=O)C(O)=O,water,298,-1.395,mol/L
N[C@@H](CCC(N)=O)C(O)=O,water,298,-0.5488,mol/L
NC(CCC(O)=O)C(O)=O,water,298,-1.2347,mol/L
NCCCCC(N)C(O)=O,water,298,0.8351,mol/L
N[C@@H](CSSC[C@H](N)C(O)=O)C(O)=O,water,298,-3.102,mol/L
OCC(O)CO[P](O)(O)=O,water,298,0.7643,mol/L
C=CCN=C=S,water,298,-1.6953,mol/L
CCCCCCCCCCCCCCCCCC(O)=O,water,298,-5.6781,mol/L
CN(C)N,water,298,1.2211,mol/L
O=C1NC(=O)C(N1)(c2ccccc2)c3ccccc3,water,298,-3.8967,mol/L
CCOC(=O)C1(CCN(C)CC1)c2ccccc2,water,298,-1.8861,mol/L
OC[C@@H](O)[C@@H](O)[C@H](O)C(=O)CO,water,298,0.6353,mol/L
OC[C@H]1O[C@H](O[C@]2(CO)O[C@H](CO)[C@@H](O)[C@@H]2O)[C@H](O)[C@@H](O)[C@@H]1O,water,298,0.7878,mol/L
CC(O)CO,water,298,1.1186,mol/L
O=C1CCO1,water,298,0.7105,mol/L
C[C@]12CC[C@H]3[C@@H](CCc4cc(O)ccc34)[C@@H]1CC[C@@]2(O)C#C,water,298,-4.4192,mol/L
NC(N)=N[S](=O)(=O)c1ccc(N)cc1,water,298,-1.9885,mol/L
ClC1CC2C(C1Cl)C3(Cl)C(=C(Cl)C2(Cl)C3(Cl)Cl)Cl,water,298,-6.8644,mol/L
CCC(=O)O[C@H]1CC[C@H]2[C@@H]3CCC4=CC(=O)CC[C@]4(C)[C@H]3CC[C@]12C,water,298,-5.3669,mol/L
CC(C)CCC[C@@H](C)[C@H]1CC[C@H]2[C@@H]3CC=C4C[C@@H](O)CC[C@]4(C)[C@H]3CC[C@]12C,water,298,-6.6096,mol/L
C[C@]12CC[C@H]3[C@@H](CCc4cc(O)ccc34)[C@@H]1CC[C@H]2O,water,298,-4.8441,mol/L
CN=C1CN(O)C(=C2C=C(Cl)C=CC2=N1)c3ccccc3,water,298,-2.1757,mol/L
CN1CCN(CCCN2c3ccccc3Sc4ccc(Cl)cc24)CC1,water,298,-4.3979,mol/L
[H+].[Cl-].Cc1ncc(CO)c(CO)c1O,water,298,0.0293,mol/L
OCC1OC(C(O)C1O)n2cnc3C(=O)N=CNc23,water,298,-1.2299,mol/L
OC1COC(O)C(O)C1O,water,298,0.5678,mol/L
OCC1OC(O)C(O)C(O)C1O,water,298,0.5788,mol/L
CCN(CC)C(=O)c1cccnc1,water,298,0.749,mol/L
O=C1Nc2ccccc2C=C1,water,298,-2.1394,mol/L
Nc1ccc(cc1)[S](=O)(=O)Nc2cnc3ccccc3n2,water,298,-4.6026,mol/L
[Cl-].Cc1ncc(C[n+]2csc(CCO)c2C)c(N)n1,water,298,0.2207,mol/L
Cc1ccccc1OCC(O)CO,water,298,-1.1887,mol/L
Cc1cc(O)ccc1Cl,water,298,-1.5704,mol/L
CSCCC(N)C(O)=O,water,298,-0.6593,mol/L
OCC(S)CS,water,298,-0.1547,mol/L
OCC1OC(O[P](O)(O)=O)C(O)C(O)C1O,water,298,0.5848,mol/L
O=NN1CCOCC1,water,298,0.9351,mol/L
NC(Cc1ccc(O)c(O)c1)C(O)=O,water,298,-1.5959,mol/L
OC(=O)CN(CCN(CC(O)=O)CC(O)=O)CC(O)=O,water,298,-2.4658,mol/L
Nc1ccc(cc1)N=Nc2ccccc2,water,298,-3.7898,mol/L
NC(Cc1ccc(O)cc1)C(O)=O,water,298,-2.5778,mol/L
OCCS,water,298,1.1072,mol/L
NCCCCCC(O)=O,water,298,0.5854,mol/L
CNN,water,298,1.3366,mol/L
CC(N)=O,water,298,1.5808,mol/L
CN(C)[C@H]1[C@@H]2C[C@H]3C(=C(O)c4c(O)cccc4[C@@]3(C)O)C(=O)[C@]2(O)C(=O)\C(=C(N)/O)C1=O,water,298,-3.284,mol/L
ClC1=C(Cl)C2(Cl)C3C4CC(C5OC45)C3C1(Cl)C2(Cl)Cl,water,298,-6.2908,mol/L
COc1ccc2Sc3ccccc3N(C[C@H](C)CN(C)C)c2c1,water,298,-4.2155,mol/L
Nc1ncnc2n(cnc12)C3OC(CO[P](O)(O)=O)C(O)C3O,water,298,-1.5406,mol/L
Cc1cccc(Nc2ccccc2C(O)=O)c1C,water,298,-4.0815,mol/L
[Cl-].CN(C)c1ccc2nc3ccc(cc3[s+]c2c1)N(C)C,water,298,-0.8655,mol/L
Nc1[nH]ncn1,water,298,0.5225,mol/L
CC(C)CC(N)C(O)=O,water,298,-0.7854,mol/L
[Cl-].COC(C[Hg+])CNC(N)=O,water,298,-1.5235,mol/L
CC(C)(N)C(O)=O,water,298,0.2453,mol/L
C/C=C(/C)C(=O)O[C@H]1CC[C@@]2(C)[C@@H]3CC[C@H]4[C@]5(O)C[C@H](O)[C@@]6(O)[C@@H](CN7C[C@@H](C)CC[C@H]7[C@@]6(C)O)[C@]5(O)C[C@]24O[C@]13O,water,298,-3.0163,mol/L
CO[P](=O)(OC)OC=C(Cl)Cl,water,298,-1.4413,mol/L
[Na+].[O-]C(=O)CF,water,298,1.0452,mol/L
OCC1OC(OC2C(O)C(O)C(O)OC2CO)C(O)C(O)C1O,water,298,-0.2444,mol/L
COC(=O)C1=CCCN(C)C1,water,298,0.8091,mol/L
NC(Cc1ccccc1)C(O)=O,water,298,-0.7882,mol/L
CNC(=O)Oc1cccc(c1)C(C)C,water,298,-3.3567,mol/L
[Na+].[Na+].[Na+].[Na+].[O-]C(=O)CN(CCN(CC([O-])=O)CC([O-])=O)CC([O-])=O,water,298,0.119,mol/L
CCO,water,298,1.3366,mol/L
OC=O,water,298,1.337,mol/L
CC(O)=O,water,298,1.2215,mol/L
C[NH+]1CC[C@@]23C4Oc5c(O)ccc(C[C@H]1[C@H]2C=C[C@H]4O)c35.C[NH+]6CC[C@@]78C9Oc%10c(O)ccc(C[C@H]6[C@H]7C=C[C@H]9O)c8%10.[O-][S]([O-])(=O)=O,water,298,-1.0157,mol/L
CCC(C)C(C)(COC(N)=O)COC(N)=O,water,298,-2.366,mol/L
COC1=CC=C2C(=CC1=O)[C@H](CCc3cc(OC)c(OC)c(OC)c23)NC(C)=O,water,298,-0.9482,mol/L
[H+].[Cl-].Cc1ncc(CO)c(C=O)c1O,water,298,0.3901,mol/L
CSCCC(NC(C)=O)C(O)=O,water,298,0.2055,mol/L
N[C@@H](Cc1cc(I)c(O)c(I)c1)C(O)=O,water,298,-2.8583,mol/L
c1cnc2c(c1)ccc3cccnc23,water,298,-1.826,mol/L
Cc1ncc(CO)c(C=O)c1O,water,298,0.4758,mol/L
[O-][N+](=O)c1oc(cc1)/C=N/N2CC(=O)NC2=O,water,298,-3.4765,mol/L
CC(=O)N/N=C/c1oc(cc1)[N+]([O-])=O,water,298,-2.5958,mol/L
CO,water,298,1.4943,mol/L
CC(C)O,water,298,1.2211,mol/L
CC(C)=O,water,298,1.236,mol/L
C[S](C)=O,water,298,1.1072,mol/L
CN1C(=O)[C@]23CC4=CC=C[C@H](O)[C@H]4N2C(=O)[C@@]1(CO)SS3,water,298,-3.6687,mol/L
OC(=O)CS,water,298,1.0357,mol/L
C[C@]12CC[C@H]3[C@@H](CCC4=CC(=O)CC[C@H]34)[C@@H]1CC[C@@]2(O)C#C,water,298,-4.6271,mol/L
Nc1ccc(cc1)[S](=O)(=O)Nc2ncccn2,water,298,-3.5119,mol/L
O=C1N=CNc2nc[nH]c12,water,298,-2.2888,mol/L
CC1(C)S[C@@H]2[C@H](NC(=O)[C@H](N)c3ccccc3)C(=O)N2[C@H]1C(O)=O,water,298,-1.539,mol/L
OCC(O)C(O)C(O)C(O)CO,water,298,0.0746,mol/L
OCC1OC(OC2C(O)C(O)C(O)OC2CO)C(O)C(O)C1O,water,298,0.3577,mol/L
O=C1NC(=O)C2=C(N1)NC(=O)N2,water,298,-3.4526,mol/L
Oc1c(Cl)cc(Cl)c(Cl)c1Cc2c(O)c(Cl)cc(Cl)c2Cl,water,298,-3.4634,mol/L
[O-][N+](=O)c1ccc(F)c(c1)[N+]([O-])=O,water,298,-2.6677,mol/L
NC(CC(N)=O)C(O)=O,water,298,-0.6525,mol/L
CC(=O)N(O)CCCCCNC(=O)CCC(=O)N(O)CCCCCNC(=O)CCC(=O)N(O)CCCCCN,water,298,-1.6695,mol/L
NC(Cc1[nH]cnc1)C(O)=O,water,298,-0.5314,mol/L
CCCO,water,298,1.2211,mol/L
NC1=CC=NC(=O)N1,water,298,-1.1426,mol/L
C[C@H]1O[C@H](C[C@H](O)[C@@H]1O)O[C@H]2[C@@H](O)C[C@@H](O[C@@H]2C)O[C@H]3[C@@H](O)C[C@@H](O[C@@H]3C)O[C@H]4CC[C@@]5(C)[C@H](CC[C@@H]6[C@@H]5CC[C@]7(C)[C@H](CC[C@]67O)C8=CC(=O)OC8)C4,water,298,-5.2926,mol/L
[Na+].CC(O)C([O-])=O,water,298,0.9505,mol/L
CC(O)C(N)C(O)=O,water,298,-0.0892,mol/L
ClC1=C(Cl)C2(Cl)C3C4CC(C5OC45)C3C1(Cl)C2(Cl)Cl,water,298,-6.1829,mol/L
COc1ccc(cc1)C(c2ccc(OC)cc2)C(Cl)(Cl)Cl,water,298,-6.5386,mol/L
Oc1ccc2C(=O)c3ccccc3C(=O)c2c1O,water,298,-2.7785,mol/L
CCc1ccc(cc1)C(C(Cl)Cl)c2ccc(CC)cc2,water,298,-6.4875,mol/L
NC(Cc1c[nH]c2ccccc12)C(O)=O,water,298,-1.183,mol/L
Nc1ncnc2nc[nH]c12,water,298,-2.1179,mol/L
CC[C@H](C)[C@H](N)C(O)=O,water,298,-0.5813,mol/L
N[S](=O)(=O)c1cc2c(NC(Cc3ccccc3)N[S]2(=O)=O)cc1C(F)(F)F,water,298,-3.5913,mol/L
CCC1NC(=O)c2cc(c(Cl)cc2N1)[S](N)(=O)=O,water,298,-3.2859,mol/L
NC(CCCN=C(N)N)C(O)=O,water,298,0.019,mol/L
C,water,298,-2.8629,mol/L
CC,water,298,-2.6985,mol/L
C=C,water,298,-2.3307,mol/L
C#C,water,298,-1.3364,mol/L
CN,water,298,1.5413,mol/L
C#N,water,298,1.5682,mol/L
CCC,water,298,-2.8492,mol/L
CC#C,water,298,-1.0417,mol/L
ClC=C,water,298,-0.8514,mol/L
CCN,water,298,1.346,mol/L
CC#N,water,298,1.3867,mol/L
NC=O,water,298,1.3464,mol/L
ON=C,water,298,0.5768,mol/L
CSC,water,298,-0.4503,mol/L
C1CO1,water,298,1.356,mol/L
BrC(Br)Br,water,298,-1.9113,mol/L
CC(C)Br,water,298,-1.5874,mol/L
ClC(Cl)Br,water,298,-1.7327,mol/L
CC(C)I,water,298,-2.0843,mol/L
CC(C)N,water,298,1.2283,mol/L
IC(I)I,water,298,-3.5952,mol/L
CC1CN1,water,298,1.2434,mol/L
C[As](C)(O)=O,water,298,1.1612,mol/L
CC(C)(C)N,water,298,1.1359,mol/L
CC(C)(C)O,water,298,1.13,mol/L
CC(F)(F)Cl,water,298,-1.856,mol/L
FC(F)(F)F,water,298,-3.6703,mol/L
C[S](O)(=O)=O,water,298,1.0173,mol/L
CC(C)(O)C#N,water,298,1.07,mol/L
FC(F)(F)CCl,water,298,-1.1098,mol/L
OCC(F)(F)F,water,298,0.9998,mol/L
[O-]C(=O)C(Br)(Br)Br,water,298,-0.1713,mol/L
CC(=O)C(C)(C)C,water,298,-0.7219,mol/L
CC(C)(C)C(O)=O,water,298,-0.6727,mol/L
CC(Cl)(Cl)C(O)=O,water,298,0.5455,mol/L
CC(O)C(Cl)(Cl)Cl,water,298,-0.7574,mol/L
OC(=O)C(Cl)(Cl)Cl,water,298,-0.476,mol/L
OC(=O)C(F)(F)Cl,water,298,0.8845,mol/L
OC(=O)C(F)(F)F,water,298,0.943,mol/L
FC(F)(Cl)C(Cl)(Cl)Cl,water,298,-3.3093,mol/L
FC(Cl)(Cl)C(F)(Cl)Cl,water,298,-3.2301,mol/L
FC(F)(F)C(F)(F)Cl,water,298,-3.4254,mol/L
FC(F)(F)C(F)(F)F,water,298,-4.2489,mol/L
CC1(C)C2CCC1(C)C(=O)C2,water,298,-1.9784,mol/L
OC1(C(=O)NC(=O)NC1=O)C2(O)C(=O)NC(=O)NC2=O,water,298,-1.9942,mol/L
CC1(C)O[C@@H]2C[C@H]3[C@@H]4CCC5=CC(=O)C=C[C@]5(C)[C@@]4(F)[C@@H](O)C[C@]3(C)[C@@]2(O1)C(=O)CO,water,298,-4.3158,mol/L
CC(C)(CO)[N+]([O-])=O,water,298,1.4681,mol/L
CC(Cl)C(Cl)(Cl)C(O)O,water,298,-0.8666,mol/L
ClC1C=CC2C1C3(Cl)C(=C(Cl)C2(Cl)C3(Cl)Cl)Cl,water,298,-6.3168,mol/L
COc1ccc2C[C@@H]3[C@@H]4C=C[C@H](O)[C@@H]5Oc1c2[C@]45CCN3C,water,298,-1.522,mol/L
CCOc1ccc2C[C@@H]3[C@@H]4C=C[C@H](O)[C@@H]5Oc1c2[C@]45CCN3C,water,298,-2.079,mol/L
Cc1cc(ccc1N)C(O)(c2ccc(N)cc2)c3ccc(N)cc3,water,298,-3.0272,mol/L
OC(c1ccccc1)(c2ccccc2)c3ccccc3,water,298,-2.2596,mol/L
CC1(C(=O)NC(=O)NC1=O)c2ccccc2,water,298,-2.4581,mol/L
Oc1ccc(cc1)C2(OC(=O)c3ccccc23)c4ccc(O)cc4,water,298,-2.9008,mol/L
CC(C)CC1(CC=C)C(=O)NC(=O)NC1=O,water,298,-2.1193,mol/L
N[S](=O)(=O)c1cc(ccc1Cl)C2(O)NC(=O)c3ccccc23,water,298,-3.4507,mol/L
CC(CO)(CO)[N+]([O-])=O,water,298,0.7724,mol/L
CCC(C)(O)CC,water,298,-0.38,mol/L
CCC(C)(O)C#C,water,298,0.0038,mol/L
CCO[P](=O)(C#N)N(C)C,water,298,-0.2186,mol/L
NC(CO)(CO)CO,water,298,0.6571,mol/L
CCCCOC(=O)CC(CC(=O)OCCCC)(OC(C)=O)C(=O)OCCCC,water,298,-4.9058,mol/L
OC(=O)CC(O)(CC(O)=O)C(O)=O,water,298,0.4887,mol/L
CCOC(=O)CC(O)(CC(=O)OCC)C(=O)OCC,water,298,-0.6285,mol/L
CCC(CO)(CO)CO,water,298,0.8723,mol/L
[O-][N+](=O)OCC(CO[N+]([O-])=O)(CO[N+]([O-])=O)CO[N+]([O-])=O,water,298,-3.8664,mol/L
CCC(C)(CC)OC(N)=O,water,298,-1.5599,mol/L
Cc1ccc(O[P](=O)(Oc2ccc(C)cc2)Oc3ccc(C)cc3)cc1,water,298,-6.0892,mol/L
CCCC(C)(COC(N)=O)COC(=O)NC(C)C,water,298,-2.9384,mol/L
CCCCO[P](=O)(CCCC)OCCCC,water,298,-2.6995,mol/L
CCCCOCCO[P](=O)(OCCOCCCC)OCCOCCCC,water,298,-2.559,mol/L
CO[P](=S)(OC)SCc1nc(N)nc(N)n1,water,298,-3.069,mol/L
CC1=CC(=O)CC(C)(C)C1,water,298,-1.0614,mol/L
CC(C)(N=NC(C)(C)C#N)C#N,water,298,-2.6713,mol/L
CC(C)=CCCC(C)(O)C=C,water,298,-1.9871,mol/L
BrCC(Br)Br,water,298,-2.7272,mol/L
CC(Br)CBr,water,298,-2.1498,mol/L
CCC(C)C,water,298,-3.177,mol/L
CC(=C)C=C,water,298,-2.0257,mol/L
CC(C)CN,water,298,1.1359,mol/L
CC(C)C=O,water,298,0.0914,mol/L
CC(=C)C=O,water,298,-0.1467,mol/L
CCC(C)Cl,water,298,-1.9665,mol/L
CC(Cl)CCl,water,298,-1.6059,mol/L
ClCC(Cl)=C,water,298,-1.7128,mol/L
CC(=O)CCl,water,298,-0.012,mol/L
CC(O)CN,water,298,1.1243,mol/L
CCC(Cl)Cl,water,298,-1.6217,mol/L
OC(=O)CBr,water,298,1.1002,mol/L
OC(=O)C=C,water,298,1.1423,mol/L
CNC(C)=O,water,298,1.1361,mol/L
NNC(N)=S,water,298,-0.9588,mol/L
CC(=O)OO,water,298,1.1189,mol/L
BrC(Br)C(Br)Br,water,298,-2.7074,mol/L
OC(=O)C(Cl)Cl,water,298,0.8896,mol/L
CC(C)[N+]([O-])=O,water,298,-0.7194,mol/L
CC(C)(CO)C(O)C(=O)NCCC(O)=O,water,298,0.6591,mol/L
CC1(C)OC(=O)C[C@@H]1C([O-])=O,water,298,-1.2449,mol/L
CC1(C)C2CCC(C2)C1=C,water,298,-4.4715,mol/L
CC(C)(OO)c1ccccc1,water,298,-1.0394,mol/L
CC(C)c1sc(N[S](=O)(=O)c2ccc(N)cc2)nn1,water,298,-3.4141,mol/L
CC(C)(OOC(C)(C)c1ccccc1)c2ccccc2,water,298,-5.7692,mol/L
CCC(C)(C)c1ccc(O)cc1,water,298,-2.9902,mol/L
CC(C)(O)C1CCC(C)(O)CC1,water,298,-1.2362,mol/L
CC1=CCC2CC1C2(C)C,water,298,-4.7381,mol/L
CC(O)C(N)C(O)=O,water,298,0.2272,mol/L
CC(=O)C1CC[C@H]2[C@@H]3CCC4=CC(=O)CC[C@]4(C)[C@H]3[C@H](O)C[C@]12C,water,298,-3.8202,mol/L
CN1C(c2ccc(Cl)cc2)[S](=O)(=O)CCC1=O,water,298,-2.0394,mol/L
CC(C)(CO)[C@@H](O)C(=O)NCCCO,water,298,0.6877,mol/L
CC(=O)c1c(C)c(c(c(c1C)[N+]([O-])=O)C(C)(C)C)[N+]([O-])=O,water,298,-5.1901,mol/L
C[C@H](CCC(O)=O)[C@H]1CC[C@H]2[C@@H]3[C@H](O)C[C@@H]4C[C@H](O)CC[C@]4(C)[C@H]3C[C@H](O)[C@]12C,water,298,-3.3682,mol/L
Oc1cc(O)c2C(=O)c3ccccc3C(=O)c2c1O,water,298,-4.6024,mol/L
CC(=O)CC(c1ccccc1)C2=C(O)Oc3ccccc3C2=O,water,298,-4.2586,mol/L
CC(=O)CC(c1ccc(Cl)cc1)C2=C(O)Oc3ccccc3C2=O,water,298,-5.836,mol/L
Oc1ccc(cc1)C(c2ccc(O)cc2)c3ccccc3C(O)=O,water,298,-3.2626,mol/L
COc1c2occc2c(OC)c3C(=O)C=C(C)Oc13,water,298,-2.3979,mol/L
Cc1ccc2C(=O)c3ccccc3C(=O)c2c1N,water,298,-5.8541,mol/L
O[S](=O)(=O)c1cccc2C(=O)c3cccc(c3C(=O)c12)[S](O)(=O)=O,water,298,1.2572,mol/L
Oc1c(cc(c(O)c1[N+]([O-])=O)[N+]([O-])=O)[N+]([O-])=O,water,298,-1.6617,mol/L
CN1CCN(CC1)C(c2ccccc2)c3ccccc3,water,298,-2.4255,mol/L
CN1N(c2ccccc2)C(=O)C(=C1C)N,water,298,0.5543,mol/L
CC(C)(C)C(=O)C1C(=O)c2ccccc2C1=O,water,298,-4.107,mol/L
C[C@H]1C[C@H]2[C@@H]3CC[C@](O)(C(=O)CO)[C@@]3(C)C[C@H](O)[C@@H]2[C@@]4(C)C=CC(=O)C=C14,water,298,-3.4942,mol/L
C[C@H](CCC(O)=O)[C@H]1CC[C@H]2[C@@H]3CC[C@@H]4C[C@H](O)CC[C@]4(C)[C@H]3C[C@H](O)[C@]12C,water,298,-3.9544,mol/L
CN1C=CC(=O)c2ccccc12,water,298,-0.9818,mol/L
Oc1cccc2c(O)cccc12,water,298,-2.9871,mol/L
COc1cc2OC[C@H]3Oc4c5C[C@@H](Oc5ccc4C(=O)[C@H]3c2cc1OC)C(C)=C,water,298,-6.2949,mol/L
O[P](O)(=O)O[C@H]1[C@H](O[P](O)(O)=O)[C@@H](O[P](O)(O)=O)[C@H](O[P](O)(O)=O)[C@@H](O[P](O)(O)=O)[C@H]1O[P](O)(O)=O,water,298,0.1804,mol/L
Cc1cc2N=C3C(=O)NC(=O)N=C3N(CC(O)C(O)C(O)CO)c2cc1C,water,298,-3.6478,mol/L
c1ccc(cc1)c2ccccc2c3ccccc3,water,298,-5.2692,mol/L
COc1ccc2nccc(C(=O)C3CC4CCN3CC4C=C)c2c1,water,298,-5.0313,mol/L
Oc1ccc2C(=O)c3cc(O)ccc3C(=O)c2c1,water,298,-5.8892,mol/L
O=C(OC1CCCCC1)c2ccccc2C(=O)OC3CCCCC3,water,298,-4.917,mol/L
O=C(Oc1ccccc1)c2ccccc2C(=O)Oc3ccccc3,water,298,-6.5891,mol/L
CCCCCCOC(=O)c1ccccc1C(=O)OCCCCCC,water,298,-6.8254,mol/L
CCCCCCCCCCOC(=O)c1ccccc1C(=O)OCCCCCCCCCC,water,298,-9.3076,mol/L
COc1c2C=CC(=O)Oc2cc3OC(C)(C)C=Cc13,water,298,-3.81,mol/L
CN1C(=O)N(C)c2nc(Cl)[nH]c2C1=O,water,298,-1.5075,mol/L
OC(=O)c1ccccc1C(=O)c2ccc(Cl)cc2,water,298,-2.7171,mol/L
OC(=O)c1ccccc1C(=O)c2ccc(O)cc2,water,298,-2.5835,mol/L
Cc1cccc(NC(=O)c2ccccc2C(O)=O)c1,water,298,-2.407,mol/L
Nc1ccc(c2cc(ccc12)[S](O)(=O)=O)[S](O)(=O)=O,water,298,-0.2592,mol/L
Nc1ccc(c2ccc(cc12)[S](O)(=O)=O)[S](O)(=O)=O,water,298,-1.643,mol/L
CCCCOc1cc(C(=O)NCCN(CC)CC)c2ccccc2n1,water,298,-3.9126,mol/L
N#CC(c1ccccc1)c2ccccc2,water,298,-2.9437,mol/L
CO[P](=S)(OC)SCN1N=Nc2ccccc2C1=O,water,298,-4.1814,mol/L
OC(=O)c1cccc2cccnc12,water,298,-1.7447,mol/L
COc1cc(C=O)cc(OC)c1OC,water,298,-2.1195,mol/L
CC(C)CCOC(=O)c1ccccc1O,water,298,-3.1572,mol/L
OCCOC(=O)c1ccccc1O,water,298,-1.1567,mol/L
CC(=O)N[C@@H](Cc1c[nH]c2ccccc12)C([O-])=O,water,298,-2.3122,mol/L
Clc1ncnc2nc[nH]c12,water,298,-1.4901,mol/L
CN(C)C(=O)Oc1cc(C)nn1c2ccccc2,water,298,-2.0886,mol/L
Cc1cccc(C)c1N,water,298,-1.1675,mol/L
Cc1cccc(Cl)c1O,water,298,-0.7739,mol/L
Oc1cccc(O)c1O,water,298,0.6043,mol/L
OC(C(O)C(O)=O)C(O)=O,water,298,0.5886,mol/L
Brc1c(Br)c(Br)c(Br)c(Br)c1Br,water,298,-9.5374,mol/L
ClN1C(=O)N(Cl)C(=O)N(Cl)C1=O,water,298,-1.2871,mol/L
OCC(O)C(O)C(O)CO,water,298,0.6253,mol/L
Cc1cc(O)cc(C)c1Cl,water,298,-2.7969,mol/L
Oc1c(Cl)cc(Cl)cc1Cl,water,298,-2.3924,mol/L
CC(=O)c1sccc1,water,298,-0.9549,mol/L
CC(C)(C)c1ccccc1O,water,298,-2.3316,mol/L
Oc1ccc(c(c1)C(F)(F)F)[N+]([O-])=O,water,298,-1.6172,mol/L
OC(=O)c1ccccc1Br,water,298,-2.0347,mol/L
CCC(C)c1cc(cc(c1O)[N+]([O-])=O)[N+]([O-])=O,water,298,-3.6646,mol/L
Oc1c(cc(cc1[N+]([O-])=O)[N+]([O-])=O)[N+]([O-])=O,water,298,-1.2562,mol/L
NC(=O)c1ccccc1C(N)=O,water,298,-2.4371,mol/L
OC(=O)c1ccccc1C(O)=O,water,298,-1.3772,mol/L