Solute,Solvent,Temperature_K,Solubility,Units
Clc1ccc(C(Cn2ccnc2)OCC=C)c(Cl)c1,water,298,-3.2178,mol/L
C[C@H](NC(=O)[C@H](C)NC(=O)[C@@H](N)CC[P](C)(O)=O)C(O)=O,water,298,0.4904,mol/L
Clc1cc(c(Cl)c(Cl)c1Cl)c2cc(Cl)c(Cl)c(Cl)c2Cl,water,298,-9.1987,mol/L
Clc1cc2Oc3c(Cl)c(Cl)c(Cl)c(Cl)c3Oc2c(Cl)c1Cl,water,298,-11.2485,mol/L
CN1C(=C(/O)Nc2ccccn2)/C(=O)c3ccccc3[S]1(=O)=O,water,298,-4.1586,mol/L
OC(=O)CCC(=O)c1ccc(cc1)c2ccccc2,water,298,-5.0609,mol/L
CCO[P](=S)(NC(C)CC)Oc1cc(C)ccc1[N+]([O-])=O,water,298,-4.7299,mol/L
Brc1cc(Br)c(Oc2cc(Br)cc(Br)c2Br)c(Br)c1,water,298,-8.1979,mol/L
CCO[P](=O)(Oc1ccc(Cl)cc1Cl)Oc2ccc(Cl)cc2Cl,water,298,-5.774,mol/L
Clc1ccc(c(Cl)c1)c2cccc(Cl)c2Cl,water,298,-6.6813,mol/L
CCC#CC(C)C,water,298,-2.7448,mol/L
CO[P](=S)(OC)SCCSC(C)C,water,298,-3.4288,mol/L
CCCCCCC(CC=CCCCCCCCC(O)=O)O[S](O)(=O)=O,water,298,-0.5781,mol/L
CCCCCCCCCCCCCCCCO,water,298,-6.7697,mol/L
CC(C)NC(=O)N1CC(=O)N(C1=O)c2cc(Cl)cc(Cl)c2,water,298,-4.3757,mol/L
CCC(C)N(C(C)CC)C(=O)SCc1ccccc1,water,298,-5.0484,mol/L
NC(=O)c1cc(Cl)cc(Cl)c1N,water,298,-2.0814,mol/L
NC(=O)c1ncn(n1)[C@@H]2O[C@H](CO)[C@@H](O)[C@H]2O,water,298,-0.2355,mol/L
CC(CCc1ccccc1)NCC(O)c2ccc(O)c(c2)C(N)=O,water,298,-3.4482,mol/L
CCCCCCCCCOC(=O)c1ccc(N)cc1,water,298,-6.0,mol/L
OC[C@H]1C[C@H](N[C@H]2C=C(CO)[C@@H](O)[C@H](O)[C@H]2O)[C@H](O)[C@@H](O)[C@@H]1O[C@@H]3O[C@H](CO)[C@@H](O)[C@H](O)[C@H]3O,water,298,0.3032,mol/L
COCCc1ccc(OCC(O)CNC(C)C)cc1,water,298,-1.1992,mol/L
ON(c1ccccc1)C(=O)c2ccccc2I,water,298,-3.5304,mol/L
NCC[C@H](O)C(=O)N[C@@H]1C[C@H](N)[C@@H](O[C@H]2O[C@H](CN)[C@@H](O)[C@H](O)[C@H]2O)[C@H](O)[C@H]1O[C@H]3O[C@H](CO)[C@@H](O)[C@H](N)[C@H]3O,water,298,-0.5004,mol/L
NC(=O)N[C@@H](Cc1ccccc1)C([O-])=O,water,298,-2.0958,mol/L
O=C1N=CNc2cccnc12,water,298,-2.0656,mol/L
Clc1cc(Cl)cc(c1)c2ccccc2Cl,water,298,-6.2999,mol/L
ClC(Cl)C(=O)N(CC=C)CC=C,water,298,-1.6193,mol/L
C[C@@H](CCl)[N+]([O-])=O,water,298,-1.1887,mol/L
Brc1cc(Br)c(OCCOc2c(Br)cc(Br)cc2Br)c(Br)c1,water,298,-6.5363,mol/L
Clc1cc2Oc3c(Cl)c(Cl)c(Cl)c(Cl)c3Oc2c(Cl)c1Cl,water,298,-11.4795,mol/L
COCCO[Si](CCCl)(OCCOC)OCCOC,water,298,-1.1029,mol/L
Cc1cc(ccc1N[S](=O)(=O)C(F)(F)F)[S](=O)(=O)c2ccccc2,water,298,-3.8009,mol/L
CCOC(=O)C1=CNC(=S)NC1=O,water,298,-2.0985,mol/L
CC(C)C[C@H](N)C(=O)N[C@H](CCC(N)=O)C(O)=O,water,298,-1.5687,mol/L
CC(O)(CO)C(O)[C@@]12NC(=O)[C@@](O)(NC1=O)C(=C)CCO2,water,298,-0.1971,mol/L
Cc1cc(C)c(OCC(O)=O)c(Br)c1,water,298,-3.1234,mol/L
CCOc1cc(O[P](=S)(OC)OC)nc(CC)n1,water,298,-3.8638,mol/L
NC1=CC(=NC(=N)N1O)N2CCCCC2,water,298,-1.9782,mol/L
CC(C)(C)NC[C@@H](O)COc1ccccc1C2CCCC2,water,298,-1.6195,mol/L
Clc1ccc(Cl)c(c1Cl)c2cc(Cl)c(Cl)cc2Cl,water,298,-7.93,mol/L
Clc1ccc(c(Cl)c1Cl)c2c(Cl)ccc(Cl)c2Cl,water,298,-7.65,mol/L
Clc1ccc(cc1Cl)c2cc(Cl)c(Cl)c(Cl)c2Cl,water,298,-7.8306,mol/L
Clc1ccc(Cl)c(c1Cl)c2cc(Cl)c(Cl)c(Cl)c2Cl,water,298,-8.5901,mol/L
Clc1cccc(c1)c2c(Cl)cccc2Cl,water,298,-6.8245,mol/L
Cc1ccc2c(ccc(O)c2n1)[N+]([O-])=O,water,298,-3.9598,mol/L
CC([S](C)(=O)=O)[S](C)(=O)=O,water,298,-1.4188,mol/L
CC(C)(NC(N)=O)C(O)=O,water,298,-1.1648,mol/L
CCOc1ccccc1\C=C/C(O)=O,water,298,-2.5234,mol/L
CC(C)c1ccc2ccccc2c1C(C)C,water,298,-6.2856,mol/L
CC(C)N.OC(=O)CNC[P](O)(O)=O,water,298,0.6629,mol/L
CCOC(=O)CN(C(=O)CCl)c1c(CC)cccc1CC,water,298,-3.4727,mol/L
CC(C)S[S](=O)C(C)C,water,298,-0.823,mol/L
CC(C)(O)CC(C)(O)c1cccc2ccccc12,water,298,-3.2419,mol/L
Clc1ccc2Oc3ccc(Cl)cc3Oc2c1,water,298,-7.1806,mol/L
Clc1c(Cl)c(Cl)c2c(oc3c(Cl)c(Cl)c(Cl)c(Cl)c23)c1Cl,water,298,-11.5827,mol/L
OC(=O)C(I)=CBr,water,298,-1.2118,mol/L
CNC(=O)O\N=C(\CSC)C(C)(C)C,water,298,-1.6231,mol/L
C/C=C/C(=O)Oc1c(cc(cc1C(C)(C)CC(C)(C)C)[N+]([O-])=O)[N+]([O-])=O,water,298,-4.9595,mol/L
Clc1ccc(c(Cl)c1)c2c(Cl)cc(Cl)cc2Cl,water,298,-7.66,mol/L
CC(C)=CC1C(C(=O)OC(C#N)c2cccc(Oc3ccccc3)c2)C1(C)C,water,298,-7.5746,mol/L
CC1(C)C(C(=O)OC(C#N)c2cccc(Oc3ccccc3)c2)C1(C)C,water,298,-6.0248,mol/L
CCC(CCC(O)=O)C(C)=O,water,298,-0.451,mol/L
CNC(=O)N(C)C(=O)CC#N,water,298,0.1709,mol/L
Clc1cc(cc(Cl)c1Cl)c2cc(Cl)c(Cl)c(Cl)c2Cl,water,298,-8.7202,mol/L
CC(=O)NCC(=O)Nc1ccccc1,water,298,-1.5678,mol/L
CC(C)(C)C1=NN(C(=O)O1)c2cc(OCC#C)c(Cl)cc2Cl,water,298,-5.9648,mol/L
CCN1C(=O)N(C)c2ncn(C)c2C1=O,water,298,-0.719,mol/L
CCOC(=O)C(NC=O)=CC=Cc1ccccc1,water,298,-3.3483,mol/L
ClCCC(Cl)O[P](=O)(OC(Cl)CCCl)OC(Cl)CCCl,water,298,-3.6344,mol/L
Clc1cc(Cl)c(Cl)c(c1)c2c(Cl)cc(Cl)c(Cl)c2Cl,water,298,-8.68,mol/L
Clc1cc(Cl)c(c(Cl)c1Cl)c2c(Cl)c(Cl)cc(Cl)c2Cl,water,298,-9.1999,mol/L
Clc1cc(c(Cl)c(Cl)c1Cl)c2c(Cl)c(Cl)c(Cl)c(Cl)c2Cl,water,298,-10.2688,mol/L
CCC(CC)Nc1c(cc(C)c(C)c1[N+]([O-])=O)[N+]([O-])=O,water,298,-5.9721,mol/L
COC(C)(C)CCCC(C)C\C=C\C(C)=C\C(=O)OC(C)C,water,298,-5.3459,mol/L
CN(C)c1ncc2nccnc2n1,water,298,0.3586,mol/L
CCOC(=O)\C=C(C)\C=C\CC(C)CCCC(C)C,water,298,-5.1246,mol/L
Fc1ccc(cc1)N2C(=O)C(=C(Cl)C2=O)Cl,water,298,-4.6442,mol/L
COc1ccc(cc1C)C(=O)c2cccc(C)c2,water,298,-5.0797,mol/L
NC(=O)NN=C[C@@H](O)[C@@H](O)[C@H](O)[C@H](O)CO,water,298,-0.53,mol/L
CC1=NN=C(c2ccccc2)C(=O)N1N,water,298,-2.0506,mol/L
Clc1ccc(Cl)c(c1)c2c(Cl)cccc2Cl,water,298,-6.7879,mol/L
Clc1ccc(cc1Cl)c2c(Cl)cccc2Cl,water,298,-7.0199,mol/L
Clc1ccc(Cl)c(c1Cl)c2ccccc2Cl,water,298,-6.3001,mol/L
CCCCc1c(C)nc(NCC)nc1O[S](=O)(=O)N(C)C,water,298,-4.1579,mol/L
CCOc1ccc(NC(C)=O)c(C)c1,water,298,-1.839,mol/L
Cc1cccc2sc3nncn3c12,water,298,-2.0729,mol/L
COc1cc(C=O)c(C)cc1O,water,298,-2.7435,mol/L
CC(C)(C)NCC(O)COc1cccc2C[C@@H](O)[C@@H](O)Cc12,water,298,-1.5699,mol/L
COc1ccc(cc1)[C@@H]2Sc3ccccc3N(CCN(C)C)C(=O)[C@@H]2OC(C)=O,water,298,-2.9501,mol/L
CCO[P](=S)(OCC)Oc1nn(C(C)C)c(Cl)n1,water,298,-3.6577,mol/L
COC(=O)c1cc(Oc2ccc(Cl)cc2Cl)ccc1[N+]([O-])=O,water,298,-5.9343,mol/L
CC(C)CCCC(C)C\C=C\C(C)=C\C(=O)OCC#C,water,298,-4.7239,mol/L
Cc1ccc(NC(=O)NC(C)(C)c2ccccc2)cc1,water,298,-5.3495,mol/L
CN(C(=O)NC(C)(C)c1ccccc1)c2ccccc2,water,298,-3.3495,mol/L
Clc1cc(Cl)c(c(Cl)c1Cl)c2cc(Cl)c(Cl)c(Cl)c2Cl,water,298,-9.42,mol/L
CCOc1cc(Oc2ccc(cc2Cl)C(F)(F)F)ccc1[N+]([O-])=O,water,298,-6.4939,mol/L
CCCOCC(O)COCCC,water,298,-0.3431,mol/L
CC(C)(C)C(=O)C(Oc1ccc(Cl)cc1)n2cncn2,water,298,-3.6137,mol/L
CC(=O)C(=O)Nc1ccccc1,water,298,-1.3676,mol/L
CN(CCCCC(O)=O)[S](=O)(=O)c1ccccc1,water,298,-1.5585,mol/L
CCCCCOC(=O)c1cccnc1,water,298,-2.3776,mol/L
NCCc1ccc(O)c(c1)[N+]([O-])=O,water,298,-1.3399,mol/L
CN1C(=O)NC(=O)c2nc(C)c(C)nc12,water,298,-2.1129,mol/L
CC1(OC(=O)N(C1=O)c2cc(Cl)cc(Cl)c2)C=C,water,298,-5.0416,mol/L
CC(C)OC(=O)C(C(=O)OC(C)C)=C1SCCS1,water,298,-3.7306,mol/L
COCCN(C(=O)CCl)c1c(C)cccc1C,water,298,-2.0461,mol/L
OC(=O)c1cc(Oc2ccc(cc2Cl)C(F)(F)F)ccc1[N+]([O-])=O,water,298,-3.4791,mol/L
CC(C)(C)c1ccc(cc1)C(O)CCCN2CCC(CC2)C(O)(c3ccccc3)c4ccccc4,water,298,-6.69,mol/L
O=C1CCCCCCCCCCCCCCN1,water,298,-2.874,mol/L
CCO[P](C)(=O)SCCN(C(C)C)C(C)C,water,298,-0.95,mol/L
CCCCCC(=O)NCCNC(=O)CCCCC,water,298,-3.1079,mol/L
CC(=O)O[C@@H](C(O)=O)c1ccccc1,water,298,-1.2313,mol/L
CC1OC1C2OC2C,water,298,-0.0575,mol/L
Cn1c2ccccc2c(C(N)=O)c1C(N)=O,water,298,-1.8184,mol/L
OC(=O)c1ccc(c(c1)C(O)=O)[S](O)(=O)=O,water,298,0.6087,mol/L
Cc1nn(c2ccccc2)c(N)c1C,water,298,-1.6704,mol/L
CCc1cccc(C)c1N(C(C)COC)C(=O)CCl,water,298,-2.7287,mol/L
CN(C)C1=NC(=O)N(C2CCCCC2)C(=O)N1C,water,298,-0.8834,mol/L
CCCCNC1(CCCCC1)[P](=O)(OCCCC)OCCCC,water,298,-3.3105,mol/L
CCCCSC(SCc1ccc(cc1)C(C)(C)C)=Nc2cccnc2,water,298,-5.5712,mol/L
COC(=O)C(C)Oc1ccc(Oc2ccc(Cl)cc2Cl)cc1,water,298,-5.6299,mol/L
COC(CN(C)C(=O)Nc1sc(nn1)C(C)(C)C)OC,water,298,-1.8678,mol/L
CN=C(NCCSCc1nc[nH]c1C)NC#N,water,298,-1.4298,mol/L
CNC(=O)Oc1ccccc1OC(CCl)OC,water,298,-2.3005,mol/L
C[C@@H]/1CC(=C/CC2C[C@@H](C[C@]3(CC[C@H](C)C(C)O3)O2)OC(=O)[C@@H]4C=C(C)[C@@H](O)[C@H]5OCC(=C\C=C1)/[C@@]45O)/C,water,298,-5.7787,mol/L
CCC1O[C@]2(CCC1C)C[C@@H]3C[C@@H](C\C=C(/C)CC(C)/C=C/C=C/4CO[C@@H]5[C@H](O)C(=C[C@@H](C(=O)O3)[C@]45O)C)O2,water,298,-4.8772,mol/L
O=C(Nc1snnc1)Nc2ccccc2,water,298,-4.0419,mol/L
Clc1ccc(Oc2ccccc2)c(Cl)c1,water,298,-4.6304,mol/L
Clc1cc(Cl)c(Cl)c(c1)c2cc(Cl)c(Cl)cc2Cl,water,298,-8.5801,mol/L
CCN1C=C(C(O)=O)C(=O)c2cnc(nc12)N3CCNCC3,water,298,-2.974,mol/L
O=C1CC=NC=N1,water,298,0.586,mol/L
NC(=O)C1(CCCCC1)N2C(=O)c3cccc(Cl)c3C2=O,water,298,-4.0097,mol/L
OC(=O)CSC1CCCCC1,water,298,-1.3381,mol/L
CCC1(C)OC(=O)NC1=O,water,298,0.0203,mol/L
CC(Oc1ccc2ccccc2c1)C(=O)Nc3ccccc3,water,298,-5.5894,mol/L
CC1(C)[C@@H](C=C(Cl)Cl)[C@H]1C(=O)OCc2cccc(Oc3ccccc3)c2,water,298,-7.8144,mol/L
Clc1cccc(c1Cl)c2ccc(Cl)c(Cl)c2Cl,water,298,-7.0502,mol/L
Clc1ccc(Cl)c(c1)c2c(Cl)c(Cl)cc(Cl)c2Cl,water,298,-7.4254,mol/L
Clc1ccc(Cl)c(c1Cl)c2c(Cl)c(Cl)cc(Cl)c2Cl,water,298,-7.94,mol/L
Clc1ccc(Cl)c(c1Cl)c2c(Cl)cc(Cl)c(Cl)c2Cl,water,298,-8.1501,mol/L
Clc1cc(Cl)c(Cl)c(c1)c2c(Cl)c(Cl)cc(Cl)c2Cl,water,298,-8.5901,mol/L
Clc1cc(Cl)c(cc1Cl)c2c(Cl)c(Cl)cc(Cl)c2Cl,water,298,-7.9428,mol/L
Clc1cc(Cl)c(cc1Cl)c2c(Cl)cc(Cl)c(Cl)c2Cl,water,298,-7.9068,mol/L
Clc1ccc(c(Cl)c1Cl)c2c(Cl)c(Cl)cc(Cl)c2Cl,water,298,-8.42,mol/L
Clc1ccc(c(Cl)c1Cl)c2c(Cl)cc(Cl)c(Cl)c2Cl,water,298,-8.2605,mol/L
Clc1cc(Cl)c(cc1Cl)c2cc(Cl)c(Cl)c(Cl)c2,water,298,-8.21,mol/L
Clc1ccc(Cl)c(c1Cl)c2c(Cl)c(Cl)c(Cl)c(Cl)c2Cl,water,298,-9.1,mol/L
Clc1cc(Cl)c(Cl)c(c1)c2cc(Cl)c(Cl)c(Cl)c2Cl,water,298,-9.1,mol/L
Clc1cc(c(Cl)c(Cl)c1Cl)c2c(Cl)c(Cl)cc(Cl)c2Cl,water,298,-9.29,mol/L
Clc1cc(Cl)c(cc1Cl)c2c(Cl)c(Cl)c(Cl)c(Cl)c2Cl,water,298,-9.5,mol/L
Clc1cc(Cl)c(Cl)c(c1Cl)c2c(Cl)c(Cl)c(Cl)c(Cl)c2Cl,water,298,-10.4115,mol/L
Clc1ccc(c(Cl)c1Cl)c2c(Cl)c(Cl)c(Cl)c(Cl)c2Cl,water,298,-9.29,mol/L
Clc1cc(Cl)c(c(Cl)c1Cl)c2c(Cl)c(Cl)c(Cl)c(Cl)c2Cl,water,298,-10.1035,mol/L
Clc1cccc(c1Cl)c2c(Cl)c(Cl)cc(Cl)c2Cl,water,298,-8.6036,mol/L
Clc1ccc(Cl)c(c1)c2cc(Cl)c(Cl)c(Cl)c2Cl,water,298,-7.6794,mol/L
Clc1ccc(Cl)c(c1)c2c(Cl)c(Cl)c(Cl)c(Cl)c2Cl,water,298,-7.8598,mol/L
CC(C)OC(=O)C(C)N(C(=O)c1ccccc1)c2ccc(F)c(Cl)c2,water,298,-4.3056,mol/L
COC(=O)C(C)N(C(=O)c1ccccc1)c2ccc(F)c(Cl)c2,water,298,-3.982,mol/L
CCCN(CCC)C(=O)SCc1ccccc1,water,298,-4.2798,mol/L
CC1(C)[C@@H](C=C(Br)Br)[C@H]1C(=O)O[C@H](C#N)c2cccc(Oc3ccccc3)c2,water,298,-8.4024,mol/L
CCCCC(O)CN(\N=C/c1oc(cc1)[N+]([O-])=O)C(N)=O,water,298,-3.5716,mol/L
Cc1cc(C)nc(Nc2ccccc2)n1,water,298,-3.2166,mol/L
Clc1ccc(c(Cl)c1)c2ccc(Cl)cc2Cl,water,298,-6.0229,mol/L
Clc1cccc2c(Cl)c(Cl)c(Cl)cc12,water,298,-7.8566,mol/L
Clc1cc(Cl)c2cc(Cl)cc(Cl)c2c1,water,298,-7.8228,mol/L
CC(C)Cc1ccc(cc1)C(C)C(=O)NO,water,298,-3.044,mol/L
O[S](=O)(=O)c1[nH]ccn1,water,298,-0.0738,mol/L
CC(=O)Nc1cc(N[S](=O)(=O)C(F)(F)F)c(C)cc1C,water,298,-3.2365,mol/L
COCCOc1c(OC)cc(Cc2cnc(N)nc2N)cc1OC,water,298,-2.101,mol/L
Ic1ccc2COC(=O)c2c1,water,298,-3.2109,mol/L
C\C=C(/Cl)C(O)=O,water,298,0.9189,mol/L
N[C@@H](C(=O)N[C@H]1[C@H]2SCC(=C(N2C1=O)C(O)=O)Cl)c3ccccc3,water,298,-1.5656,mol/L
CC(C)(NC(=O)c1ccccc1)C(N)=O,water,298,-1.6154,mol/L
COc1ccc(Cl)c(Cl)c1Cl,water,298,-4.2918,mol/L
CC\C=C(/C)C(OC(=O)C1C(C=C(C)C)C1(C)C)C#C,water,298,-6.3931,mol/L
CCCCC(=O)NCCNC(=O)CCCC,water,298,-1.8145,mol/L
CCO[P](=S)(OCC)OC(Cl)C(Cl)(Cl)Cl,water,298,-5.5263,mol/L
O=NN1CCCC1=O,water,298,0.0523,mol/L
CC[C@H](C)[C@@H](NC(C)=O)C(O)=O,water,298,-0.5912,mol/L
CSc1cc(O)cc(O)c1,water,298,-1.7957,mol/L
CCCCSc1cc(O)cc(O)c1,water,298,-2.5191,mol/L
CCCCC(NC(C)=O)C(O)=O,water,298,-0.3443,mol/L
CC(C)(C)C(O)C(Oc1ccc(cc1)c2ccccc2)n3cncn3,water,298,-4.8292,mol/L
Clc1ccccc1c2c(Cl)cc(Cl)c(Cl)c2Cl,water,298,-7.4346,mol/L
CC(C)(C)C(O)C(Oc1ccc(Cl)cc1)n2cncn2,water,298,-3.3918,mol/L
CCCn1cnc2N(C)C(=O)N(CCCCC(C)=O)C(=O)c12,water,298,-0.9811,mol/L
O=C1CN(CC2N1CCc3ccccc23)C(=O)C4CCCCC4,water,298,-2.8927,mol/L
CCN(CC(C)=C)c1c(cc(cc1[N+]([O-])=O)C(F)(F)F)[N+]([O-])=O,water,298,-6.0457,mol/L
CC1=C(C)[S](=O)(=O)CC[S]1(=O)=O,water,298,-1.66,mol/L
Clc1ccccc1c2cc(Cl)c(Cl)c(Cl)c2Cl,water,298,-7.5226,mol/L
CCCO[P](=O)(OCC)OCCC,water,298,-0.9802,mol/L
OC(=O)COc1nc(Cl)c(Cl)cc1Cl,water,298,-2.7656,mol/L
CN1CC(O)N(C1=O)c2sc(nn2)C(C)(C)C,water,298,-1.8773,mol/L
CCCCCCCCSC(=O)Oc1cc(Cl)nnc1c2ccccc2,water,298,-5.4025,mol/L
Clc1ccc(Oc2ccccc2)cc1Cl,water,298,-4.7206,mol/L
Clc1ccc(Cl)c(c2ccccc2)c1Cl,water,298,-6.4902,mol/L
Clc1ccc(c2ccccc2)c(Cl)c1Cl,water,298,-6.1799,mol/L
Clc1ccc2cc(Cl)cc(Cl)c2c1,water,298,-6.5557,mol/L
Clc1ccc2cc(Cl)c(Cl)cc2c1,water,298,-7.1419,mol/L
Clc1ccc(Cl)c2cc(Cl)c(Cl)cc12,water,298,-7.5163,mol/L
CC(C)Oc1cccc(NC(=O)c2ccccc2C)c1,water,298,-4.3265,mol/L
CN(C)C(=O)Nc1cc(on1)C(C)(C)C,water,298,-2.4272,mol/L
CCC(=O)N(c1ccccc1)C2(CCN(CCc3sccc3)CC2)COC,water,298,-3.7064,mol/L
Clc1ccc(c(Cl)c1)c2c(Cl)cc(Cl)c(Cl)c2Cl,water,298,-7.4721,mol/L
CCCC(C)CC(C)O,water,298,-1.8779,mol/L
CC(C)C(O)(c1ccc(OC(F)(F)F)cc1)c2cncnc2,water,298,-3.4377,mol/L
O=CC(=O)Cc1ccccc1,water,298,-2.1707,mol/L
Clc1cc(Cl)c(c(Cl)c1)c2c(Cl)cccc2Cl,water,298,-7.316,mol/L
Clc1cc(Cl)c(c(Cl)c1)c2ccc(Cl)c(Cl)c2,water,298,-7.91,mol/L
Clc1cc(Cl)c(c(Cl)c1)c2cc(Cl)cc(Cl)c2,water,298,-7.92,mol/L
FC1=CN(C(=O)NC1=O)C(=O)Nc2ccccc2,water,298,-1.6184,mol/L
CNC(=O)N1C=C(F)C(=O)NC1=O,water,298,-2.4798,mol/L
CC(C)(C)c1ccc(O[P](=O)(Oc2ccccc2)Oc3ccccc3)cc1,water,298,-5.0774,mol/L
CO[P](=S)(OC)Oc1c(Cl)cc(C)cc1Cl,water,298,-5.4374,mol/L
CSC1=NN=C(C(=O)N1\N=C\C(C)C)C(C)(C)C,water,298,-4.4288,mol/L
COc1c(O)cc(Cl)c(Cl)c1Cl,water,298,-2.8712,mol/L
Clc1cc2oc3c(Cl)c(Cl)c(Cl)cc3c2cc1Cl,water,298,-9.1609,mol/L
Nc1ccc2COC(=O)c2c1,water,298,-2.0414,mol/L
O=C1CCc2cccc3CCN1c23,water,298,-1.6365,mol/L
CCN(C(=O)Oc1cccc(NC(=O)OC(C)C)c1)c2ccccc2,water,298,-5.0574,mol/L
FC(F)(F)c1cccc(c1)C(n2cncn2)(c3ccccc3)c4ccccc4,water,298,-8.403,mol/L
CN(CCOC(=O)c1ccccc1)C(C)=O,water,298,-0.8494,mol/L
COC(=O)C(C)N(C(=O)c1occc1)c2c(C)cccc2C,water,298,-3.1173,mol/L
COCC(=O)N(C(C)C(=O)OC)c1c(C)cccc1C,water,298,-1.5219,mol/L
CCNC(=O)NC(=O)\C(=N\OC)C#N,water,298,-2.3477,mol/L
CC(C)OC(=O)[C@H](C)N(C(=O)c1ccccc1)c2ccc(F)c(Cl)c2,water,298,-4.4817,mol/L
Cc1ccc(cc1)N=Nc2cc(C)ccc2N,water,298,-3.9031,mol/L
CCC1(CC)C(=NC(=O)NC1=O)N,water,298,-1.3967,mol/L
CC1OC(=O)c2cc(ccc12)[N+]([O-])=O,water,298,-2.6157,mol/L
Cc1cc(ccc1N=Nc2c(Cl)cc(cc2Cl)[N+]([O-])=O)N(CCO)CCO,water,298,-5.9592,mol/L
Nc1c(Br)cc(Br)c(c1Br)[S](O)(=O)=O,water,298,-0.4888,mol/L
CC(N(c1ccc(F)c(Cl)c1)C(=O)c2ccccc2)C(O)=O,water,298,-4.2474,mol/L
Cc1cccc(C)c1N(C2CCOC2=O)C(=O)CCl,water,298,-3.2855,mol/L
COC1OC(CNC(=O)N(CCCl)N=O)C(O)C(O)C1O,water,298,-1.5613,mol/L
Clc1ccc(Oc2ccc(Cl)cc2Cl)cc1,water,298,-6.2196,mol/L
CCCO[P](=O)(OC)OC,water,298,0.4733,mol/L
NC1=NC(=O)c2ncn(COCCO)c2N1,water,298,-2.1431,mol/L
Clc1cc(Cl)c(c(Cl)c1)c2ccc(Cl)c(Cl)c2Cl,water,298,-8.2399,mol/L
CC(C)C=CCC(O)=O,water,298,-1.1487,mol/L
CSC(/C)=N/OC(=O)N(C)SN(C)C(=O)O\N=C(/C)SC,water,298,-4.0055,mol/L
CN1C=C(c2ccccc2)C(=O)C(=C1)c3cccc(c3)C(F)(F)F,water,298,-4.4384,mol/L
CCOc1ccccc1\C=C\C([O-])=O,water,298,-3.3248,mol/L
Clc1ccc(Cl)c(c1)c2c(Cl)cc(Cl)cc2Cl,water,298,-7.47,mol/L
Clc1cc(Cl)c(c(Cl)c1)c2cc(Cl)c(Cl)cc2Cl,water,298,-8.1199,mol/L
Clc1cc(Cl)c(c(Cl)c1)c2cc(Cl)c(Cl)c(Cl)c2Cl,water,298,-8.68,mol/L
CC(C)([S](C)(=O)=O)[S](C)(=O)=O,water,298,-1.4504,mol/L
CN1C=C(I)C=CC1=O,water,298,-0.0094,mol/L
C[C@H](O)C(=O)Nc1c(I)c(C(=O)NC(CO)CO)c(I)c(C(=O)NC(CO)CO)c1I,water,298,-0.7443,mol/L
OC(c1ccc(Cl)cc1)(c2cncnc2)c3ccccc3Cl,water,298,-4.374,mol/L
Clc1ccc(c(Cl)c1)C2(Cn3cncn3)OCCO2,water,298,-3.0031,mol/L
CCCC1COC(Cn2cncn2)(O1)c3ccc(Cl)cc3Cl,water,298,-3.4929,mol/L
CCC1COC(Cn2cncn2)(O1)c3ccc(Cl)cc3Cl,water,298,-3.613,mol/L
Clc1cccc(c1)c2c(Cl)cc(Cl)cc2Cl,water,298,-7.1547,mol/L
Clc1cc(Cl)c(c(Cl)c1)c2cccc(Cl)c2Cl,water,298,-7.3999,mol/L
CCO[P](=S)(OCC)Oc1cc(Cl)c(Cl)c(SC)c1,water,298,-6.0807,mol/L
OC(=O)[C@H]1CC[C@@H]([Se][Se]1)C(O)=O,water,298,-2.1053,mol/L
CCSC(C(O)=O)c1ccccc1,water,298,-1.5686,mol/L
CON(C1CCCCC1)C(=O)c2cc(C)oc2C,water,298,-5.9231,mol/L
O[S](=O)(=O)c1c[nH]cn1,water,298,0.1304,mol/L
CC(Br)C(=O)NCC(=O)NCC(O)=O,water,298,-0.9642,mol/L
FC(F)(F)c1cccc(c1)N2CC(CCl)C(Cl)C2=O,water,298,-3.949,mol/L
NC(=S)NC#N,water,298,-0.0049,mol/L
Clc1ccc(Oc2ccccc2Cl)cc1Cl,water,298,-5.199,mol/L
CCC(=O)OC(C)C(=O)OC,water,298,-0.8622,mol/L
CC(C)(SC(=O)N1CCCCC1)c2ccccc2,water,298,-4.1196,mol/L
CC(C)Cc1[nH]ccn1,water,298,-1.0488,mol/L
CN1C=CSC1=Nc2ccc(C)cc2C,water,298,-3.163,mol/L
CSC(=NC)N(C)C,water,298,-0.4401,mol/L
Clc1cccc(c1Cl)c2c(Cl)cc(Cl)c(Cl)c2Cl,water,298,-8.48,mol/L
OCCNC(=O)c1cc(O)ccc1O,water,298,-0.5436,mol/L
Nc1c2cc(ccc2c(cc1[S](O)(=O)=O)[S](O)(=O)=O)[S](O)(=O)=O,water,298,-0.3188,mol/L
CNC(=O)OCc1cccc(Cl)c1Cl,water,298,-3.1389,mol/L
CCCCN(C(N)=O)c1ccccc1,water,298,-1.2971,mol/L
Clc1cc(Cl)c(c(Cl)c1)c2ccccc2Cl,water,298,-6.65,mol/L
CN(C)C(=O)SCCCCOc1ccccc1,water,298,-3.9266,mol/L
Cc1c(Cl)cc(cc1Cl)C2=NNC(=O)C=C2,water,298,-5.5375,mol/L
CCN(Cc1c(F)cccc1Cl)c2c(cc(cc2[N+]([O-])=O)C(F)(F)F)[N+]([O-])=O,water,298,-6.7799,mol/L
N#CCO/N=C(C#N)/c1ccccc1,water,298,-3.2899,mol/L
OC(c1ccc(F)cc1)(c2cncnc2)c3ccccc3Cl,water,298,-4.083,mol/L
Clc1ccc(Oc2ccc(Cl)c(Cl)c2)cc1,water,298,-5.6603,mol/L
CCCC(Br)(CCC)C(N)=O,water,298,-1.8281,mol/L
COC(=O)[C@@H](C)N(C(=O)c1ccccc1)c2ccc(F)c(Cl)c2,water,298,-4.3219,mol/L
CC(C)OC(=O)[C@@H](C)N(C(=O)c1ccccc1)c2ccc(F)c(Cl)c2,water,298,-4.4817,mol/L
CC[C@H]1OC[C@@H](COc2ccc(Oc3ccccc3)cc2)O1,water,298,-4.7874,mol/L
CCCN1C(=O)N(C)c2ncn(C)c2C1=O,water,298,-1.2082,mol/L
ClCCN(Cl)CCCl,water,298,-1.9203,mol/L
CCOc1ccc(cc1)C2(CC2(Cl)Cl)C(=O)OC(C#N)c3cccc(Oc4ccccc4)c3,water,298,-6.7243,mol/L
CCOC(=O)N1CCN(CC1)CN2CCN(CC2)C(=O)OCC,water,298,-0.8443,mol/L
CCCCNC(=O)N1C=C(F)C(=O)NC1=O,water,298,-2.4464,mol/L
CO[P](=S)(OC)SCC(=O)N(C(C)C)c1ccc(Cl)cc1,water,298,-4.4321,mol/L
CC1(C)C(C(=O)OC(C#N)c2cccc(Oc3ccccc3)c2)C1(C)C,water,298,-7.3941,mol/L
C[C@H](CCC(=O)NCC(O)=O)[C@H]1CCC2C3[C@@H](O)C[C@@H]4C[C@H](O)CC[C@]4(C)C3CC[C@]12C,water,298,-5.5225,mol/L
CCSC1=NN=C(C(=O)N1N)C(C)(C)C,water,298,-2.7353,mol/L
FC(F)(F)Oc1ccc(NC(=O)NC(=O)c2ccccc2Cl)cc1,water,298,-7.1568,mol/L
NC(=O)COC(=O)c1ccccc1,water,298,-1.6405,mol/L
CCNC(=O)COC(=O)c1ccccc1,water,298,-2.2373,mol/L
CCN(CC)C(=O)COC(=O)c1ccccc1,water,298,-2.0706,mol/L
CCNC(C)C(O)=O,water,298,0.6522,mol/L
CN1C(=O)C(N)C(=S)N(C)C1=O,water,298,-1.117,mol/L
Clc1ccc(c(Cl)c1)c2ccc(Cl)c(Cl)c2Cl,water,298,-7.62,mol/L
S=C1N=CNc2nccnc12,water,298,-2.6471,mol/L
CC(=O)OCC(C(OC(C)=O)c1ccccc1)[N+]([O-])=O,water,298,-3.972,mol/L
CC(=O)OC[C@H]([C@@H](OC(C)=O)c1ccccc1)[N+]([O-])=O,water,298,-3.972,mol/L
Clc1ccc(CN(C2CCCC2)C(=O)Nc3ccccc3)cc1,water,298,-6.0399,mol/L
CC(C)[C@@H](C(=O)O[C@@H](C#N)c1cccc(Oc2ccccc2)c1)c3ccc(Cl)cc3,water,298,-8.3221,mol/L
CCCC(Cn1cncn1)c2ccc(Cl)cc2Cl,water,298,-3.5903,mol/L
CC(C)Oc1cccc(NC(=O)c2ccccc2C(F)(F)F)c1,water,298,-4.6947,mol/L
CCOC(=O)C(C)Oc1ccc(Oc2oc3cc(Cl)ccc3n2)cc1,water,298,-5.6042,mol/L
Clc1cccc(Oc2ccc(Cl)c(Cl)c2)c1,water,298,-5.437,mol/L
CC1(C)[C@@H](C(Br)C(Br)(Br)Br)[C@H]1C(=O)O[C@H](C#N)c2cccc(Oc3ccccc3)c2,water,298,-6.9197,mol/L
CCCC(Br)C(=O)NC(N)=O,water,298,-1.4278,mol/L
CN(C)C1CCCC=CCC1,water,298,-1.6004,mol/L
CNC(=O)Sc1ccc(O[S](C)(=O)=O)cc1,water,298,-2.7359,mol/L
CC1(CCCC1=O)C#N,water,298,0.9095,mol/L
Cc1cccc(C)c1N(Cn2cccn2)C(=O)CCl,water,298,-2.8102,mol/L
CCC(CC)(CC)NC(N)=O,water,298,-1.8191,mol/L
CC(CN1CC(C)OC(C)C1)Cc2ccc(cc2)C(C)(C)C,water,298,-2.4821,mol/L
CC1(C)[C@@H](C=C(Cl)Cl)[C@H]1C(=O)OC(C#N)c2cccc(Oc3ccccc3)c2,water,298,-7.6194,mol/L
CC1(C)CNC(=NC1)N\N=C(/C=C/c2ccc(cc2)C(F)(F)F)\C=C\c3ccc(cc3)C(F)(F)F,water,298,-7.916,mol/L
Clc1cc2c(oc3c(Cl)c(Cl)c(Cl)c(Cl)c23)c(Cl)c1Cl,water,298,-11.4817,mol/L
CC(CN1C[C@H](C)O[C@H](C)C1)Cc2ccc(cc2)C(C)(C)C,water,298,-4.8487,mol/L
Brc1cc2oc3cc(Br)c(Br)cc3c2cc1Br,water,298,-6.8395,mol/L
CCCN(CCOc1c(Cl)cc(Cl)cc1Cl)C(=O)n2ccnc2,water,298,-4.0445,mol/L
CCOC(=O)CN(N=O)C(N)=O,water,298,0.7566,mol/L
Brc1ccc(Br)c(c1)c2cc(Br)c(Br)cc2Br,water,298,-9.7256,mol/L
O=C1NC=Cc2cccnc12,water,298,-1.1428,mol/L
Clc1cc(Cl)c(cc1OCC#C)N2N=C3CCCCN3C2=O,water,298,-4.3251,mol/L
CC1(C)C(\C=C(/Cl)C(F)(F)F)C1C(=O)OC(C#N)c2cccc(Oc3ccccc3)c2,water,298,-7.9541,mol/L
CC(=O)OCCN(CCC#N)c1ccc(cc1)N=Nc2sc3cc(ccc3n2)[N+]([O-])=O,water,298,-5.8031,mol/L
Clc1cc(NC(=O)Nc2ccccc2)ccn1,water,298,-3.8028,mol/L
Clc1ccc(c(Cl)c1)c2c(Cl)cccc2Cl,water,298,-6.65,mol/L
Clc1ccc(c(Cl)c1)c2c(Cl)ccc(Cl)c2Cl,water,298,-7.1694,mol/L
Clc1ccc(c(Cl)c1)c2cc(Cl)cc(Cl)c2Cl,water,298,-7.82,mol/L
Clc1cc(Cl)cc(c1)c2c(Cl)ccc(Cl)c2Cl,water,298,-7.95,mol/L
Clc1ccc(cc1)c2c(Cl)c(Cl)cc(Cl)c2Cl,water,298,-7.88,mol/L
Clc1cc(Cl)cc(c1)c2cc(Cl)c(Cl)cc2Cl,water,298,-7.47,mol/L
Clc1ccc(Cl)c(c1)c2c(Cl)cc(Cl)c(Cl)c2Cl,water,298,-8.01,mol/L
Clc1cc(c(Cl)c(Cl)c1Cl)c2c(Cl)cccc2Cl,water,298,-8.13,mol/L