Solute,Solvent,Temperature_K,Solubility,Units
[Na].[Na+].[Fe].Nc1cc(ccc1O)[N+]([O-])=O.Nc2cc(cc(c2O)[S]([O-])(=O)=O)[N+]([O-])=O.Oc3cccc(O)c3,water,298,-0.958981243,mol/L
[Na+].[Na+].[Na+].[O-]C(=O)CN(CC([O-])=O)CC([O-])=O,water,298,0.396103236,mol/L
[Na+].Nc1cc(N)c(cc1N=Nc2cc(ccc2O)[N+]([O-])=O)[S]([O-])(=O)=O,water,298,-0.763942094,mol/L
NC(N)=N.SC#N,water,298,0.730968256,mol/L
N=C(c1ccccc1)c2ccccc2,water,298,-2.781128006,mol/L
[Cl-].CCCCCCCCCCCCCC[N+](C)(C)Cc1ccccc1,water,298,-0.773513953,mol/L
[Na+].[O-]C(=O)CS,water,298,0.727399149,mol/L
[K+].CC(CC([O-])=O)CC(C)(C)C,water,298,0.485162372,mol/L
[Na].[Na+].[Fe].Nc1cc(ccc1O)[N+]([O-])=O.Nc2cc(cc(c2O)[S]([O-])(=O)=O)[N+]([O-])=O.Oc3cccc(O)c3,water,298,-0.994056687,mol/L
COC(=O)C=C,water,298,-0.156801457,mol/L
CC1=CC(=O)N2NC=NC2=N1,water,298,-1.33639321,mol/L
[Na+].[Na+].COc1cc(N=Nc2ccc(cc2)[S]([O-])(=O)=O)c(C)cc1N\N=C/3C(=O)c4ccc(Nc5ccccc5)cc4C=C3[S]([O-])(=O)=O,water,298,-2.045401474,mol/L
O=C1OC(=O)c2ccccc12,water,298,-1.378213218,mol/L
[Na+].[Na+].Cc1ccccc1Oc2ccccc2N\N=C/3C(=O)c4c(NC(=O)c5ccccc5)cc(cc4C=C3[S]([O-])(=O)=O)[S]([O-])(=O)=O,water,298,-2.050671467,mol/L
[O-][S](=O)(=O)CCC[NH+]1CCOCC1,water,298,0.455782507,mol/L
[Na].[Na+].[Fe].Nc1cc(ccc1O)[N+]([O-])=O.Nc2cc(cc(c2O)[S]([O-])(=O)=O)[N+]([O-])=O.Oc3cccc(O)c3,water,298,-1.007192838,mol/L
[Na+].[Na+].[Na+].[Na+].[Na+].[Na+].[Na+].[Na+].NC(=O)Nc1cc(Nc2nc(Cl)nc(Nc3ccc(c4ccc(Nc5nc(Cl)nc(Nc6ccc(N=Nc7cc8c(cc(cc8[S]([O-])(=O)=O)[S]([O-])(=O)=O)cc7[S]([O-])(=O)=O)c(NC(N)=O)c6)n5)cc4[S]([O-])(=O)=O)c(c3)[S]([O-])(=O)=O)n2)ccc1N=Nc9cc%10c(cc(cc%10[S]([O-])(=O)=O)[S]([O-])(=O)=O)cc9[S]([O-])(=O)=O,water,298,-1.498168281,mol/L
[Li+].[Cl-],water,298,1.134397972,mol/L
OCC[C@@H]1CCCC[NH2+]1,water,298,0.642748355,mol/L
[H+].[Cl-].NC(CO)(CO)CO,water,298,0.551414915,mol/L
CC(C)COC(=O)[C@@H](C)O,water,298,-0.412857335,mol/L
[Ca++].[O-]C(=O)CS,water,298,-0.383898135,mol/L
CC1(C)CC(O)CC(C)(CN)C1,water,298,0.488999371,mol/L
[Na+].CC(=C)C[S]([O-])(=O)=O,water,298,0.519421508,mol/L
[K+].[K+].[O-][S](=O)(=O)OO[S]([O-])(=O)=O,water,298,-0.653730142,mol/L
O[C@@H](CNc1ccccc1)C[S]([O-])(=O)=O,water,298,0.11878449,mol/L
CN(CCC#N)c1ccc(cc1)C=CC2=[N+](C)c3ccccc3C2(C)C.O[P](O)([O-])=O,water,298,-0.93040182,mol/L
[Na+].CCCCCCCC1N(CCO)C=CN1CCC([O-])=O,water,298,0.212706758,mol/L
[Na+].[Na+].[Na+].[Na+].[O-]C(=O)CN(CCN(CC([O-])=O)CC([O-])=O)CC([O-])=O,water,298,0.118989877,mol/L
[Na+].[Na+].[Na+].OCCN(CCN(CC([O-])=O)CC([O-])=O)CC([O-])=O,water,298,0.162150306,mol/L
[Cl-].CCCCCCCCCCCCCC[N+](C)(C)Cc1ccccc1,water,298,-0.866935638,mol/L
[F].[F].[F].[Cr],water,298,-0.338416648,mol/L
CC(=C)C(=O)OCC1CO1,water,298,-0.45378908,mol/L
[O-][N+](=O)c1[nH]ncc1,water,298,-1.285472821,mol/L
NO,water,298,-0.778545884,mol/L
OCC(O)COc1ccc(Cl)cc1,water,298,1.431347968,mol/L
[Na+].[Co+3].CC(=O)/C(=N/Nc1cc(ccc1[O-])[S](N)(=O)=O)C(=O)[N-]c2ccccc2.CC(=O)/C(=N/Nc3cc(ccc3[O-])[S](N)(=O)=O)C(=O)[N-]c4ccccc4,water,298,-2.208470112,mol/L
CCCCCCOC(CO)CO,water,298,-1.055812212,mol/L
[Br-].CC[N+]1(C)CCCC1,water,298,1.410187143,mol/L
[K+].[O-]C(=O)c1ccccc1,water,298,0.48726735,mol/L
[Cl-].NC(=O)c1ccc[n+](Cc2ccccc2)c1,water,298,0.293610373,mol/L
CC(C)=CCC[C@@](C)(C=C)\C=C\c1ccc(O)cc1,water,298,-6.337017381,mol/L
O.[Na+].[O-]OB=O,water,298,-0.823100201,mol/L
COC(C)(C)CCOC(C)=O,water,298,-0.439029198,mol/L
[Cr+3].[O-][P]([O-])([O-])=O,water,298,0.48599564,mol/L
[Na+].[Na+].[Fe].Nc1ccc(cc1)[N+]([O-])=O.Nc2cc(cc(c2O)[N+]([O-])=O)[N+]([O-])=O.OC/3=CC(=O)C=CC3=N/Nc4cc(cc5cc(cc(O)c45)[S]([O-])(=O)=O)[S]([O-])(=O)=O,water,298,-1.296729537,mol/L
[Cl-].CCCCCCCCCCCCCC[N+](C)(C)Cc1ccccc1,water,298,-0.922452966,mol/L
[Na+].[Na+].[Fe].Nc1ccc(cc1)[N+]([O-])=O.Nc2cc(cc(c2O)[N+]([O-])=O)[N+]([O-])=O.OC/3=CC(=O)C=CC3=N/Nc4cc(cc5cc(cc(O)c45)[S]([O-])(=O)=O)[S]([O-])(=O)=O,water,298,-1.307546525,mol/L
[Na+].[Na+].[Na+].[Na+].[Na+].[Na+].[Na+].[Na+].Oc1c(Nc2nc(Cl)nc(Nc3ccc(Nc4nc(Cl)nc(Nc5c(O)c6c(cc(cc6N=Nc7ccc8c(cccc8[S]([O-])(=O)=O)c7[S]([O-])(=O)=O)[S]([O-])(=O)=O)cc5[S]([O-])(=O)=O)n4)cc3)n2)c(cc9cc(cc(N=Nc%10ccc%11c(cccc%11[S]([O-])(=O)=O)c%10[S]([O-])(=O)=O)c19)[S]([O-])(=O)=O)[S]([O-])(=O)=O,water,298,-0.634868411,mol/L
[Cl-].CCCCCCCCCCCCCC[N+](C)(C)Cc1ccccc1,water,298,-0.953121785,mol/L
[F-].[F-].[Ni++],water,298,-0.383317077,mol/L
OC(=O)c1cc(Br)nn1c2ncccc2Cl,water,298,-1.784390525,mol/L
OC(=O)c1cc(Br)nn1c2ncccc2Cl,water,298,1.215434674,mol/L
NC(=O)NC1NC(=O)NC1=O,water,298,-1.508782486,mol/L
Oc1ccc(Cl)cc1Cl,water,298,-1.521999518,mol/L
[Na+].[Na+].[O-][S](=O)(=O)c1ccc(cc1)N=Nc2ccc(N\N=C\3C(=O)c4ccc(NC(=O)c5ccccc5)cc4C=C3[S]([O-])(=O)=O)cc2,water,298,-2.156676448,mol/L
[Na+].[O-][S](=O)(=O)C1=CC(=O)C2=C(NNc3ccccc3[S](=O)(=O)c4ccccc4)C(=N)C=CC2=C1,water,298,-2.088831676,mol/L
OC[P+](CO)(CO)CO.OC[P+](CO)(CO)CO.[O-][S]([O-])(=O)=O,water,298,1.9675127,mol/L
CCCCCCCCCCCCCC[N+](C)(C)C.CCCCCCCCCCCCCC[N+](C)(C)C.[O-]C(=O)C([O-])=O,water,298,-0.201967633,mol/L
O=C1CCO1,water,298,0.710489386,mol/L
[K+].CC(C)CCOC([S-])=S,water,298,0.237889723,mol/L
CCC(=O)N(C1CC[NH2+]CC1)c2ccccc2,water,298,-0.835225508,mol/L
[Na+].[O-][S](=O)(=O)CCN1CCOCC1,water,298,0.188529745,mol/L
CCCCCCCC(=O)OCC(O)CO,water,298,0.179474131,mol/L
[Na+].[Na+].[Na+].[Co+3].CC(=O)\C(=N/Nc1cc(cc(c1[O-])[S]([O-])(=O)=O)[N+]([O-])=O)C(=O)[N-]c2ccccc2.CC(=O)\C(=N/Nc3cc(cc(c3[O-])[S]([O-])(=O)=O)[N+]([O-])=O)C(=O)[N-]c4ccccc4,water,298,-0.474704027,mol/L
[Na+].[Na+].Nc1c(N=Nc2ccc(cc2)[N+]([O-])=O)c(cc3C=C(\C(=N/Nc4ccccc4)C(=O)c13)[S]([O-])(=O)=O)[S]([O-])(=O)=O,water,298,-1.2800595,mol/L
[Li+].[O-]C(=O)c1ccccc1,water,298,0.390910622,mol/L
[Na+].[Na+].[Na+].[O-][S](=O)(=O)c1cc2C=CC(=O)\C(=N/Nc3ccc(c4ccccc34)[S]([O-])(=O)=O)c2c(c1)[S]([O-])(=O)=O,water,298,-0.296785333,mol/L
C1CCOCOC1,water,298,0.467955166,mol/L
CN(C)C(=O)NC[C@@]1(C)C[C@@H](CC(C)(C)C1)NC(=O)N(C)C,water,298,-1.893818753,mol/L
[Na+].[Na+].Nc1ccc2C(=O)C(=N/Nc3ccc4C(=O)C(=N/Nc5ccccc5)\C(=Cc4c3)[S]([O-])(=O)=O)/C(=Cc2c1)[S]([O-])(=O)=O,water,298,-2.210130555,mol/L
CCc1cccc(C)c1N,water,298,-1.574706312,mol/L
NC(=O)C[NH+](CC([O-])=O)CC([O-])=O,water,298,-1.763581857,mol/L
COC(=O)c1ccc(O)cc1,water,298,-1.690907409,mol/L
[Ca++].NC#N,water,298,-0.446096322,mol/L
OC(=O)CCSCCC(O)=O,water,298,-0.799143198,mol/L
CCCCN[P](N)(N)=S,water,298,-0.773033917,mol/L
[F].[F].[F].[Cr],water,298,-0.590228621,mol/L
[Na+].[Na+].[Na+].Cc1ccccc1Nc2nc(Cl)nc(Nc3cc(cc4C=C(/C(=N/Nc5ccccc5[S]([O-])(=O)=O)C(=O)c34)[S]([O-])(=O)=O)[S]([O-])(=O)=O)n2,water,298,-0.457240368,mol/L
[H+].[Cl-].NN,water,298,1.595628815,mol/L
[Na+].Oc1ccc2ccccc2c1N=Nc3ccc(cc3)[S]([O-])(=O)=O,water,298,-1.115857896,mol/L
[Na+].[Na+].[Na+].[Na+].[Cu++].[Cu++].[O-]c1cc(ccc1N=Nc2c([O-])c(cc3cc(ccc23)[S]([O-])(=O)=O)[S]([O-])(=O)=O)c4ccc(N=Nc5c([O-])c(cc6cc(ccc56)[S]([O-])(=O)=O)[S]([O-])(=O)=O)c([O-])c4,water,298,-1.607428748,mol/L
[Na+].[Na+].[Fe].Nc1ccc(cc1)[N+]([O-])=O.Nc2cc(cc(c2O)[N+]([O-])=O)[N+]([O-])=O.OC/3=CC(=O)C=CC3=N/Nc4cc(cc5cc(cc(O)c45)[S]([O-])(=O)=O)[S]([O-])(=O)=O,water,298,-1.540626045,mol/L
CO[S]([O-])(=O)=O.CC(C)N(C(C)C)c1sc(N=Nc2ccc(cc2)N(C)C)[n+](C)n1,water,298,-1.259698438,mol/L
[Na+].[Na+].[O-][S](=O)(=O)c1cccc2c(cccc12)N=Nc3ccc(N=Nc4ccc(Nc5ccccc5)c6c4cccc6[S]([O-])(=O)=O)c7ccccc37,water,298,-1.463118539,mol/L
[Li+].CC1=NN(C(=N)/C1=N/Nc2cc(Cl)c(cc2Cl)[S]([O-])(=O)=O)c3ccccc3,water,298,-1.237068525,mol/L
CC(C)CC1CC(C)(O)CCO1,water,298,2.13768162,mol/L
Cc1ccc(O)cc1,water,298,-0.666630444,mol/L
[Na+].[Na+].Cc1ccc(cc1)[S](=O)(=O)Oc2ccc(cc2)N=Nc3ccc(N=Nc4ccc(Nc5ccc(cc5[S]([O-])(=O)=O)[N+]([O-])=O)cc4)c6ccc(cc36)[S]([O-])(=O)=O,water,298,-1.570984747,mol/L
Cc1cc(C)c(N)c(C)c1N,water,298,-0.820716356,mol/L
[Na+].[Na+].Nc1ccc(N=Nc2ccc(N\N=C\3C(=O)c4c(N)c(N=Nc5ccc(cc5)N=Nc6ccc(N)cc6N)c(cc4C=C3[S]([O-])(=O)=O)[S]([O-])(=O)=O)cc2)c(N)c1,water,298,-1.568718144,mol/L
NO,water,298,-0.168466717,mol/L
CC1(C)CC(=O)CC(C)(C)N1[O],water,298,0.10341255,mol/L
[Na+].[Na+].Nc1ccc(N=Nc2ccc(cc2)[S](=O)(=O)Nc3ccc(cc3)N=Nc4c(N)c5c(O)c(N=Nc6ccccc6)c(cc5cc4[S]([O-])(=O)=O)[S]([O-])(=O)=O)c(N)c1,water,298,-0.602981194,mol/L
[Na+].[Na+].[O-]C([O-])=O,water,298,0.302102237,mol/L
Cc1ccc(O)cc1,water,298,-0.701547905,mol/L
[Na+].Nc1c(cc(NC2CCCCC2)c3C(=O)c4ccccc4C(=O)c13)[S]([O-])(=O)=O,water,298,-1.296365099,mol/L
[Na+].[Na+].[Na+].[Na+].Nc1ccc(cc1[S]([O-])(=O)=O)N=Nc2ccc(N=Nc3ccc(N\N=C/4C(=O)c5ccc(NC(=O)c6ccccc6)cc5C=C4[S]([O-])(=O)=O)c7ccc(cc37)[S]([O-])(=O)=O)c8ccc(cc28)[S]([O-])(=O)=O,water,298,-1.725427794,mol/L
NC1=NC(=O)N(C=C1)C2OC(CO[P](O)(O)=O)C(O)C2O,water,298,-1.198775352,mol/L
CCNC(=S)OC(C)C,water,298,-1.696742946,mol/L
[Na+].[O-][N+](=O)c1ccc(Nc2ccc(Nc3ccccc3)c(c2)[S]([O-])(=O)=O)c(c1)[N+]([O-])=O,water,298,-2.199137363,mol/L
COC(=O)c1ccccc1N,water,298,-1.733847045,mol/L
[Na+].Nc1c(cc(Nc2ccccc2)c3C(=O)c4ccccc4C(=O)c13)[S]([O-])(=O)=O,water,298,-2.173896088,mol/L
[Na+].CC1=NN(C(=O)C1N=Nc2cc(Cl)ccc2Oc3ccccc3Cl)c4cc(ccc4Cl)[S]([O-])(=O)=O,water,298,-2.316221585,mol/L
NC1=Nc2[nH]cc(CCc3ccc(cc3)C(O)=O)c2C(=O)N1,water,298,-2.049774529,mol/L
CCNC(=S)OC(C)C,water,298,-1.744788784,mol/L
NC(=O)C[NH+](CC([O-])=O)CC([O-])=O,water,298,-1.855195531,mol/L
CCNC(=S)OC(C)C,water,298,-1.754734893,mol/L
CCOC(=O)c1ccc(O)c(O)c1,water,298,-1.855655062,mol/L
COC(=O)c1ccc(O)cc1,water,298,-1.784329094,mol/L
OC(=O)c1cc(cc(c1)C(O)=O)C(O)=O,water,298,-1.942299553,mol/L
COc1ccc(CCC#N)cc1OC,water,298,-1.901344783,mol/L
[Na+].CC1=NN(C(=O)C1N=Nc2cccc(c2)[S](=O)(=O)NCCc3ccccc3)c4cc(Cl)c(cc4Cl)[S]([O-])(=O)=O,water,298,-2.429980995,mol/L
[Na+].[Na+].Cc1ccc(cc1)[S](=O)(=O)Nc2cc(cc3C=C(C(=N/Nc4ccc(Oc5ccccc5C)cc4Oc6ccccc6C)\C(=O)c23)[S]([O-])(=O)=O)[S]([O-])(=O)=O,water,298,-2.566969077,mol/L
[Na+].[Na+].[Na+].[Na+].COc1cc(N=Nc2cc(cc3cc(cc(O)c23)[S]([O-])(=O)=O)[S]([O-])(=O)=O)c(C)cc1NC(=O)Nc4cc(C)c(cc4OC)N=Nc5cc(cc6cc(cc(O)c56)[S]([O-])(=O)=O)[S]([O-])(=O)=O,water,298,-2.690313687,mol/L
O=C1NC(=O)C2CCCC12,water,298,0.155357382,mol/L
[Na+].[O-][S](=O)(=O)CCNC1CCCCC1,water,298,-0.078418557,mol/L
[Na+].[Na+].[O-][S]([O-])(=O)=O,water,298,0.126333765,mol/L
C[C@]12CC[C@H]3[C@@H](CCC4=C3CCC(=O)C4)[C@@H]1CC[C@@H]2O,water,298,-4.947028744,mol/L
OCC(CO)(CBr)CBr,water,298,-1.130401751,mol/L
[Na+].[Na+].[Na+].[Na+].[Na+].[Na+].Nc1c(N=Nc2cc(Nc3nc(Cl)nc(Nc4cccc(c4)[S](=O)(=O)CCO[S]([O-])(=O)=O)n3)ccc2[S]([O-])(=O)=O)c(cc5cc(c(N=Nc6ccc7c(cccc7[S]([O-])(=O)=O)c6[S]([O-])(=O)=O)c(O)c15)[S]([O-])(=O)=O)[S]([O-])(=O)=O,water,298,-0.855658376,mol/L
[Na+].[Na+].[Na+].[Na+].[Na+].[Na+].[O-]C(=O)c1ccc[n+](c1)c2nc(NCCNc3ccc4N=C5C(=C6Oc7c(ccc(NCCNc8nc(Nc9cc(ccc9[S]([O-])(=O)=O)[S]([O-])(=O)=O)nc(n8)[n+]%10cccc(c%10)C([O-])=O)c7[S]([O-])(=O)=O)N=C6C(=C5Oc4c3[S]([O-])(=O)=O)Cl)Cl)nc(Nc%11cc(ccc%11[S]([O-])(=O)=O)[S]([O-])(=O)=O)n2,water,298,-0.952204802,mol/L
[Na+].Nc1ccc(N\N=C\2C=Cc3c(cccc3[S]([O-])(=O)=O)C2=O)cc1,water,298,-1.291560039,mol/L
C/C=C(\C)/C(=O)OC1C(C2(C(CC1(C)C)C3=CCC4C5(CCC(C(C5CCC4(C3(CC2O)C)C)(C)CO)OC6C(C(C(C(O6)C(=O)O)OC7C(C(C(C(O7)CO)O)O)O)O)OC8C(C(C(C(O8)CO)O)O)O)C)CO)OC(=O)C,water,298,-1.103103668,mol/L
[Cl-].[Cl-].[Sn++],water,298,-0.027457269,mol/L
[H+].[Cl-].CC(C)(N=NC(C)(C)C(N)=N)C(N)=N,water,298,-0.124571946,mol/L
[K+].OP(O)O,water,298,1.152409408,mol/L
[Na+].[Na+].[Cu].COc1ccc(cc1N)[S]([O-])(=O)=O.Nc2ccc(c(N)c2)[N+]([O-])=O.Oc3cccc([O-])c3,water,298,-1.504350196,mol/L
[Na+].[Na+].[Na+].[Na+].COc1ccc(N\N=C\2C(=O)c3ccc(Nc4nc(Nc5ccc6C(=O)C(=N/Nc7ccc(OC)cc7[S]([O-])(=O)=O)/C(=Cc6c5)[S]([O-])(=O)=O)nc(n4)N8CCOCC8)cc3C=C2[S]([O-])(=O)=O)c(c1)[S]([O-])(=O)=O,water,298,-1.825282751,mol/L
[Na+].[Na+].[Na+].[O-]C(=O)C1=NN(c2ccc(cc2)[S]([O-])(=O)=O)C(=O)C1N=Nc3ccc(cc3)[S]([O-])(=O)=O,water,298,-0.504996401,mol/L
CC(N)C(O)=O,water,298,0.267898616,mol/L
OC(=O)C1CCCN1,water,298,1.148318966,mol/L
[Na+].[Na+].[O-][S]([O-])(=O)=O,water,298,0.057095178,mol/L
[Na+].[Na+].[O-][S]([O-])(=O)=O,water,298,0.05440604,mol/L
[Na+].[Na+].Cc1ccc(cc1)[S](=O)(=O)Nc2cc(cc3C=C(C(=N/Nc4cc(Cl)ccc4Oc5ccccc5)\C(=O)c23)[S]([O-])(=O)=O)[S]([O-])(=O)=O,water,298,-0.667930686,mol/L
[H+].[Cl-].CC(C)(C)N(CC(=O)c1ccc(O)c(CO)c1)Cc2ccccc2,water,298,-1.348776549,mol/L
[Cl-].CN(N=CC1=[N+](C)c2ccccc2C1(C)C)c3ccc(C)cc3,water,298,-1.329218805,mol/L
ON=C1CCCCC1,water,298,-0.849572956,mol/L
[Na+].[Na+].[Na+].[Na+].[Na+].[Na+].Nc1c(N=Nc2cc(Nc3nc(Cl)nc(Nc4cccc(c4)[S]([O-])(=O)=O)n3)ccc2[S]([O-])(=O)=O)c(cc5C=C(/C(=N/Nc6cc(Nc7nc(Cl)nc(Nc8cccc(c8)[S]([O-])(=O)=O)n7)ccc6[S]([O-])(=O)=O)C(=O)c15)[S]([O-])(=O)=O)[S]([O-])(=O)=O,water,298,-0.957205517,mol/L
OC(=O)C1CCCN1,water,298,1.129135649,mol/L
[Ca++].[O-]P=O.[O-]P=O,water,298,-0.032644921,mol/L
[NH4+].[Fe+3].[O-]C(=O)CN(CCCN(CC([O-])=O)CC([O-])=O)CC([O-])=O,water,298,0.105005622,mol/L
ON=C1CCCCC1,water,298,-0.87760168,mol/L
[Na+].[Na+].COc1nc(Nc2ccccc2)nc(Nc3ccc(\C=C\c4ccc(Nc5nc(Nc6ccccc6)nc(OC)n5)cc4[S]([O-])(=O)=O)c(c3)[S]([O-])(=O)=O)n1,water,298,-1.761510148,mol/L
[Na+].Cc1ccc(N[S](=O)(=O)c2cc(NNC3=C4C(=O)C=C(C=C4C=CC3=N)[S]([O-])(=O)=O)ccc2Cl)c(C)c1,water,298,-0.630871318,mol/L
[Na+].Cc1cc(ccc1N\N=C2\C(=O)C=Cc3ccccc23)[S]([O-])(=O)=O,water,298,-0.43660043,mol/L
Oc1ccc(cc1)[S](O)(=O)=O,water,298,0.878924604,mol/L
Cc1cccc(c1C)[S](O)(=O)=O,water,298,0.849861103,mol/L
[Na+].[Na+].CC(=O)Nc1cc(cc2C=C(\C(=N/Nc3ccccc3)C(=O)c12)[S]([O-])(=O)=O)[S]([O-])(=O)=O,water,298,-0.586608448,mol/L
CN(C)C1CCCCC1,water,298,-0.977488142,mol/L
[Li+].[Li+].[O-]C([O-])=O,water,298,-0.754642314,mol/L
[Na+].[Na+].CC(=O)Nc1ccc2C=C(\C(=N/Nc3ccc(cc3)[S](=O)(=O)CCO[S]([O-])(=O)=O)C(=O)c2c1)[S]([O-])(=O)=O,water,298,-0.679407503,mol/L
[Na+].CCN(CC)c1ccc(cc1)[C+](c2ccc(cc2)N(CC)Cc3cccc(c3)[S]([O-])(=O)=O)c4ccc(cc4)N(CC)Cc5cccc(c5)[S]([O-])(=O)=O,water,298,-0.77170269,mol/L
NCCCCCCNC(O)=O,water,298,-0.095298805,mol/L
CCCCCCCO,water,298,-1.853033473,mol/L
[Li].O[S](=O)(=O)C(F)(F)F,water,298,0.903040198,mol/L
NC(N)=N.O[N+]([O-])=O,water,298,0.010251263,mol/L
[Li].O[S](=O)(=O)C(F)(F)F,water,298,0.900612997,mol/L
[Li].O[S](=O)(=O)C(F)(F)F,water,298,0.899568601,mol/L
CCOCCOCCOC(=O)C=C,water,298,-0.181251006,mol/L
[Li].O[S](=O)(=O)C(F)(F)F,water,298,0.894661267,mol/L
N#CCCC#N,water,298,0.175240889,mol/L
[Na+].[Na+].Cc1cc(ccc1NNC2=C(C=C3C=CC(=O)C=C3C2=O)[S]([O-])(=O)=O)C4(CCCCC4)c5ccc(NNC6=C(C=C7C=CC(=O)C=C7C6=O)[S]([O-])(=O)=O)c(C)c5,water,298,-0.854788461,mol/L
[Ca++].[O-]P=O.[O-]P=O,water,298,-0.151608746,mol/L
Cc1cccc(c1C)[S](O)(=O)=O,water,298,0.792903527,mol/L
Cc1ccc(cc1)[S](O)(=O)=O,water,298,0.826160052,mol/L
Cc1cccc(c1C)[S](O)(=O)=O,water,298,0.792151502,mol/L
O[S](=O)(=O)c1ccccc1,water,298,0.848907093,mol/L
Cc1cccc(c1C)[S](O)(=O)=O,water,298,0.777998866,mol/L
[Na+].Nc1cc(cc2cc(cc(O)c12)[S]([O-])(=O)=O)[S](O)(=O)=O,water,298,-1.476228892,mol/L
OC(=O)C(O)=O,water,298,0.07901721,mol/L
[K].OC(=O)C(O)=O.OC(=O)C(O)=O,water,298,-0.307349426,mol/L
[Li+].[O-][N+]([O-])=O,water,298,1.170097396,mol/L
CCCCNCCO,water,298,0.931102034,mol/L
CNCCO,water,298,1.124296456,mol/L
NCCO,water,298,1.214072532,mol/L
CN(C)C=O,water,298,1.13611233,mol/L
[OH-].[Cr+3].[O-][S]([O-])(=O)=O,water,298,0.782342373,mol/L
[Na+].S,water,298,1.243569299,mol/L
[F].[F].[F].[Cr],water,298,-0.037386653,mol/L
OC(=O)c1cc(Br)nn1c2ncccc2Cl,water,298,1.550984626,mol/L
ClCCOCCCl,water,298,-1.130069652,mol/L
[Na+].Cc1ccc(Nc2ccc(O)c3C(=O)c4ccccc4C(=O)c23)c(c1)[S]([O-])(=O)=O,water,298,-1.634881148,mol/L
c1ccccc1,water,298,-1.618571028,mol/L
COC(=O)c1ccc(O)cc1,water,298,-1.926996597,mol/L
[Na+].CCN(CC)[S](=O)(=O)c1ccc(OC)c(N\N=C\2C=C(c3ccccc3C2=O)[S]([O-])(=O)=O)c1,water,298,-2.466753911,mol/L
CCOC(=O)N(CC)c1ccccc1,water,298,0.867399476,mol/L
CCCC[Sn++]CCCC.CCCCC(CC)C([O-])=O.CCCCC(CC)C([O-])=O,water,298,-2.569336281,mol/L
Oc1ccc(cc1)[S](=O)(=O)c2ccc(O)cc2,water,298,-2.357024785,mol/L
OC(=O)c1cc(Br)nn1c2ncccc2Cl,water,298,-2.467909689,mol/L
OC(=O)c1cc(Br)nn1c2ncccc2Cl,water,298,0.531668461,mol/L
OC[C@H]1O[C@@H](Oc2cc(O)cc(O)c2C(=O)CCc3ccc(O)cc3)[C@H](O)[C@@H](O)[C@@H]1O,water,298,-2.639897679,mol/L
Cc1c(N)cccc1Cl,water,298,-2.15106632,mol/L
CC(C)c1ccc(C)cc1O,water,298,-2.176730649,mol/L
CC(=O)OCCc1ccccc1,water,298,-2.231757445,mol/L
OC(=O)CCCCC1CCSS1,water,298,-2.375047335,mol/L
Cc1ccccc1OCC2CO2,water,298,-2.291104446,mol/L
CCCCCCCCCCCCCC[N+](C)(C)C.CCCCCCCCCCCCCC[N+](C)(C)C.[O-]C(=O)C([O-])=O,water,298,-2.898070996,mol/L
CCCCCCc1ccc(O)cc1O,water,298,-2.442696664,mol/L
Nc1ccc(\C=C\c2ccc(N)cc2[S](O)(=O)=O)c(c1)[S](O)(=O)=O,water,298,-2.755767001,mol/L
O=C1CCCCCCCCCCCN1,water,298,-2.502783819,mol/L
[Na+].O[S](=O)(=O)CCN1CCN(CC1)CC[S]([O-])(=O)=O,water,298,-2.747593942,mol/L
Clc1ccc2N(C3CC[NH2+]CC3)C(=O)Nc2c1,water,298,-2.663075861,mol/L
CC(=C)C1CCC(=CC1)C,water,298,-2.4019045,mol/L
Clc1ccccc1,water,298,-2.32059795,mol/L
Clc1ccccc1,water,298,-2.349812241,mol/L
Clc1ccccc1,water,298,-2.350676509,mol/L
Clc1ccccc1,water,298,-2.35327968,mol/L
Clc1ccccc1,water,298,-2.375601884,mol/L
Clc1ccccc1,water,298,-2.400102212,mol/L
CC(CC=O)CC(C)(C)C,water,298,-2.675906595,mol/L
Clc1ccccc1,water,298,-2.58155821,mol/L
Clc1ccccc1,water,298,-2.735409881,mol/L
[O-][N+](=O)c1ccc(Cl)cc1,water,298,-2.896404951,mol/L
Clc1ccccc1Cl,water,298,-3.0533858,mol/L
CC(=C)C1CCC(=CC1)C,water,298,-3.055117013,mol/L
COc1ccc(\C=C\C)cc1,water,298,-3.125539877,mol/L
CN(C)C(=O)Nc1cccc(c1)C(F)(F)F,water,298,-3.320548588,mol/L
CCCCCl,water,298,-2.925072887,mol/L
CCCCC(CC)CO[P](O)(=O)OCC(CC)CCCC,water,298,-3.508430056,mol/L
[Cl-].[Cl-].[Cl-].[Cr+3],water,298,-3.199631781,mol/L
NC1=Nc2[nH]cc(CCc3ccc(cc3)C(O)=O)c2C(=O)N1,water,298,-3.574289037,mol/L
C.[Mo].[Mo],water,298,-3.420275441,mol/L
CC(=C)C1CCC(=CC1)C,water,298,-3.240536497,mol/L
CC(C)c1ccccc1,water,298,-3.380916398,mol/L
CC(Cc1ccc(cc1)C(C)(C)C)C=O,water,298,-3.657083487,mol/L
Clc1ccc(Cl)c(Cl)c1,water,298,-3.656694588,mol/L
[Na+].CCCCCCCCCCCCCCCC(=O)N1[C@@H](CCC1=O)C([O-])=O,water,298,-4.022319118,mol/L
CCOC(=O)N(c1ccccc1)c2ccccc2,water,298,-3.969239559,mol/L
CCC(C)c1cc(cc(c1O)[N+]([O-])=O)[N+]([O-])=O,water,298,-4.009532261,mol/L
C.[Mo].[Mo],water,298,-4.238721287,mol/L
[O--].[O--].[O--].[O--].[O--].[O--].[Al+3].[Al+3].[Ca++].[Ca++].[Ca++].[Ca++].[Ca++].[Ca++].[O-][S]([O-])(=O)=O.[O-][S]([O-])(=O)=O.[O-][S]([O-])(=O)=O,water,298,-3.074227426,mol/L
CC(C)CCCC(C)CCCC(C)CCCCC(C)CCCC(C)CCCC(C)C,water,298,-4.848010434,mol/L
Nc1ccc(OCc2cccc(F)c2)c(Cl)c1,water,298,-4.693292334,mol/L
Oc1c(Br)c2ccccc2nc1C3C(=O)c4ccccc4C3=O,water,298,-4.867097266,mol/L
CC(C)CCCC(C)CCCC(C)CCCCC(C)CCCC(C)CCCC(C)C,water,298,-5.14904043,mol/L
O=C1CCCCCCCCCC\C=C/CCC1,water,298,-5.072615639,mol/L
NC1=Nc2[nH]cc(CCc3ccc(cc3)C(O)=O)c2C(=O)N1,water,298,-5.406470303,mol/L
CC(C)CCCC(C)CCCC(C)CCCCC(C)CCCC(C)CCCC(C)C,water,298,-5.626161685,mol/L
[Ca++].[O-][Sn]([O-])=O,water,298,-5.616551128,mol/L
CCCCCCCCCCCCCCC/C=C/CC(CC(O)=O)C(O)=O,water,298,-6.964445851,mol/L
CCCCCCCCCCCCCCCCOc1ccccc1C(=O)CC(=O)Nc2scc(n2)c3ccccc3,water,298,-4.847279535,mol/L
CC(C)OCCOC(C)=O,water,298,-0.165775242,mol/L
[NH4+].[NH4+].[NH4+].[Cl-].[Cl-].[Cl-].[Cl-].[Cl-].[Cl-].[Rh+3],water,298,-0.56876707,mol/L
CC(CC(O)=O)CC(C)(C)C(O)=O,water,298,-0.279037497,mol/L
OC(=O)c1cc(ccc1O)[S](O)(=O)=O,water,298,0.655490272,mol/L
N[S](O)(=O)=O.C1COCCN1,water,298,0.727886015,mol/L
[F-].[K+],water,298,1.228407286,mol/L
OCCN1CCNC1=O,water,298,0.877677326,mol/L
Nc1ccc(OCCO)c(N)c1,water,298,-0.233704176,mol/L
CC(=C)C(O)=O,water,298,0.056273368,mol/L
CC(=C)C(=O)OC(=O)C(C)=C,water,298,-0.196759712,mol/L
[Na+].[O-]C=O,water,298,1.155112648,mol/L
CC[N+](CC)(CC)CC.[O-]C(=O)c1ccccc1,water,298,0.583312842,mol/L
[Na+].[O-]C#N,water,298,0.17111691,mol/L
[Na+].OC([O-])=O,water,298,0.057960927,mol/L
OCCNCCO,water,298,0.957792794,mol/L
O=C1NCCN1,water,298,1.042750719,mol/L
C=CC(=O)OCCOCCOCCOCCOC(=O)C=C,water,298,-0.500013296,mol/L
CCC1CO1,water,298,0.122025944,mol/L
[Na+].CCN(CC)c1cc2[o+]c3cc(N(CC)CC)c(C)cc3c(c2cc1C)c4ccc(cc4[S]([O-])(=O)=O)[S]([O-])(=O)=O,water,298,-0.80532039,mol/L
CCC1CO1,water,298,0.119746178,mol/L
CC(C)CO,water,298,0.107770617,mol/L
[Na+].[O-]C=O,water,298,1.144712595,mol/L
[Na+].[Br-],water,298,0.963501086,mol/L
COCCOCCOC,water,298,0.84545625,mol/L
C/C=C/C(O)=O,water,298,0.038175146,mol/L
[Ba++].[O-][N+]([O-])=O.[O-][N+]([O-])=O,water,298,-0.444071386,mol/L
Oc1ccc(O)cc1,water,298,-0.068706797,mol/L
[Zn++].[O-]C(=O)C1CCC(=O)N1.[O-]C(=O)C2CCC(=O)N2,water,298,-0.534193588,mol/L