Solute,Solvent,Temperature_K,Solubility,Units
CC=CC(=O)Nc1ccc(O)cc1,water,298,-2.6464,mol/L
CCC(CC)(C#N)C(=O)NC(N)=O,water,298,-1.564,mol/L
CCOc1ccccc1O[S](=O)(=O)NC(=O)Nc2nc(OC)cc(OC)n2,water,298,-4.1853,mol/L
CCOC(=O)C(Cl)Cc1cc(N2N=C(C)N(C(F)F)C2=O)c(F)cc1Cl,water,298,-4.2727,mol/L
CCC1=C(C(O)=O)C(=O)C=NN1c2ccc(Cl)cc2,water,298,0.4,mol/L
OC1(CCCCCC1n2cncn2)c3ccc(Cl)cc3,water,298,-3.3681,mol/L
CCOC(=O)COc1cc(c(F)cc1Cl)c2nn(C)c(OC(F)F)c2Cl,water,298,-5.6161,mol/L
Cc1sc(C(=O)Nc2c(Br)cc(OC(F)(F)F)cc2Br)c(n1)C(F)(F)F,water,298,-5.5186,mol/L
FC1(F)Oc2cccc(c2O1)c3c[nH]cc3C#N,water,298,-5.1395,mol/L
CC1(OC(=O)N(Nc2ccccc2)C1=O)c3ccc(Oc4ccccc4)cc3,water,298,-6.8573,mol/L
CO\C=C(C(=O)OC)/c1ccccc1Oc2cc(Oc3ccccc3C#N)ncn2,water,298,-4.8276,mol/L
CNC(=O)C(=N/OC)\c1ccccc1Oc2ccccc2,water,298,-3.3466,mol/L
CSC(=O)c1cccc2nnsc12,water,298,-4.4363,mol/L
CN(Cc1ccc(Cl)nc1)C(C)=NC#N,water,298,-1.7244,mol/L
CCOC(=O)C1=NN(c2ccc(Cl)cc2Cl)C(C)(C1)C(=O)OCC,water,298,-4.271,mol/L
N[S](=O)(=O)c1ccc(SCCCCO)cc1,water,298,-2.5141,mol/L
N[S](=O)(=O)c1ccc(CCCO)cc1,water,298,-1.032,mol/L
N[S](=O)(=O)c1ccc(CCCCO)cc1,water,298,-1.1931,mol/L
N[S](=O)(=O)c1ccc(CCCCCO)cc1,water,298,-1.9712,mol/L
CN(C)c1nc(NC(=O)N[S](=O)(=O)c2c(C)cccc2C(O)=O)nc(OCC(F)(F)F)n1,water,298,-5.6798,mol/L
CO\N=C(/C)c1cccc(Oc2nc(OC)cc(OC)n2)c1C(=O)OC,water,298,-3.6037,mol/L
Fc1ccc2N=C(n3cncn3)N(C(=O)c2c1)c4ccc(Cl)cc4Cl,water,298,-5.5754,mol/L
COc1cc(OC)nc(NC(=O)N[S](=O)(=O)Nc2ccccc2C(=O)C3CC3)n1,water,298,-6.3943,mol/L
[O-][N+](=O)NC1=NCCN1Cc2ccc(Cl)nc2,water,298,-2.6223,mol/L
COc1cc(OC)n2nc(nc2n1)[S](=O)(=O)Nc3c(Cl)ccc(C)c3Cl,water,298,-3.3204,mol/L
C[S](=O)(=O)c1cc(ccc1C(=O)c2cnoc2C3CC3)C(F)(F)F,water,298,-4.7631,mol/L
CC[S](=O)(=O)c1nc2ccccn2c1[S](=O)(=O)NC(=O)Nc3nc(OC)cc(OC)n3,water,298,-4.4191,mol/L
CC(C)N(C(=O)COc1sc(nn1)C(F)(F)F)c2ccc(F)cc2,water,298,-3.8121,mol/L
CO\N=C(C(=O)OC)/c1ccccc1COc2ccccc2C,water,298,-5.195,mol/L
Cc1cc(C)nc(NC(=O)N[S](=O)(=O)c2ccccc2C(=O)OC3COC3)n1,water,298,-3.893,mol/L
COC(=O)C1(CC1)[S](=O)(=O)c2ccc(C)cc2,water,298,-2.8803,mol/L
CCOC(=O)C1(CC1)[S](=O)(=O)c2ccc(C)cc2,water,298,-3.0104,mol/L
CC(C)OC(=O)C1(CC1)[S](=O)(=O)c2ccc(C)cc2,water,298,-3.2307,mol/L
COC(=O)C1(CC1)[S](=O)(=O)c2ccc(Cl)cc2,water,298,-3.3086,mol/L
CC(C)OC(=O)C1(CC1)[S](=O)(=O)c2ccc(Cl)cc2,water,298,-3.5401,mol/L
CC(C)(C)OC(=O)C1(CC1)[S](=O)(=O)c2ccc(Cl)cc2,water,298,-4.1206,mol/L
COC(=O)C1(CC1)[S](=O)(=O)c2ccc(Br)cc2,water,298,-3.6703,mol/L
COC(=O)C1(CC1)[S](=O)(=O)c2ccc(cc2)[N+]([O-])=O,water,298,-3.3797,mol/L
CC(C)OC(=O)C1(CC1)[S](=O)(=O)c2ccc(cc2)[N+]([O-])=O,water,298,-4.2605,mol/L
NC1[C@H]2CN(C[C@@H]12)c3nc4N(C=C(C(O)=O)C(=O)c4cc3F)c5ccc(F)cc5F,water,298,-4.5296,mol/L
CCOc1nc(F)cc2nc(nn12)[S](=O)(=O)Nc3c(Cl)cccc3C(=O)OC,water,298,-4.4292,mol/L
COc1ccc(cc1NNC(=O)OC(C)C)c2ccccc2,water,298,-4.9025,mol/L
CCOc1cc(ccc1C2COC(=N2)c3c(F)cccc3F)C(C)(C)C,water,298,-6.6782,mol/L
CCN(C1CCCCC1)C(=O)N2N=NN(C2=O)c3ccccc3Cl,water,298,-5.1821,mol/L
CC(C)OC(=O)C1(CCC1)[S](=O)(=O)c2ccc(cc2)[N+]([O-])=O,water,298,-3.7599,mol/L
CC(C)OC(=O)C1(CCCCC1)[S](=O)(=O)c2ccc(cc2)[N+]([O-])=O,water,298,-4.8796,mol/L
CC(C)OC(=O)C1(CCCCCC1)[S](=O)(=O)c2ccc(cc2)[N+]([O-])=O,water,298,-5.0706,mol/L
COC(=O)C1(CCC1)[S](=O)(=O)c2ccc(Br)cc2,water,298,-3.55,mol/L
COC(=O)C1(CCCC1)[S](=O)(=O)c2ccc(Br)cc2,water,298,-4.0104,mol/L
COC(=O)C1(CCCCC1)[S](=O)(=O)c2ccc(Br)cc2,water,298,-4.4786,mol/L
COC(=O)C1(CCC1)[S](=O)(=O)c2ccc(Cl)cc2,water,298,-2.9996,mol/L
CC(C)OC(=O)C1(CCCC1)[S](=O)(=O)c2ccc(Cl)cc2,water,298,-4.6498,mol/L
CCOC(=O)C1(CCC1)[S](=O)(=O)c2ccc(C)cc2,water,298,-2.9594,mol/L
COC(=O)C1(CCC1)[S](=O)(=O)c2ccccc2,water,298,-3.0005,mol/L
COC(=O)C1(CCCC1)[S](=O)(=O)c2ccccc2,water,298,-2.5501,mol/L
COC(=O)C1(CCCCC1)[S](=O)(=O)c2ccccc2,water,298,-2.8498,mol/L
CC(C)C(C(=O)OC(C#N)c1cccc(Oc2ccc(Br)cc2)c1)c3ccc(OC(F)F)cc3,water,298,-8.1731,mol/L
COc1cccc(C(=O)NN(C(=O)c2cc(C)cc(C)c2)C(C)(C)C)c1C,water,298,-5.5664,mol/L
CC(C)OC(=O)c1cc(c(F)cc1Cl)c2nn(C)c(c2Br)C(F)(F)F,water,298,-6.9227,mol/L
CCOC(=O)C(NC=O)=Cc1cocc1,water,298,-2.7477,mol/L
CC(C)C,water,298,-3.0759,mol/L
CCC(C)(C)C,water,298,-3.6706,mol/L
CC(C)C(C)C,water,298,-3.5832,mol/L
CCC(C)CC,water,298,-3.6826,mol/L
CC1CCCC1,water,298,-3.3019,mol/L
CCCC,water,298,-2.9776,mol/L
CCCCC,water,298,-3.2785,mol/L
CCCCCC,water,298,-3.9577,mol/L
C1CCCCC1,water,298,-3.1847,mol/L
CCCCCCCC,water,298,-5.2382,mol/L
CCCCCCCCCCCC,water,298,-7.6631,mol/L
CCCCCCC,water,298,-4.4694,mol/L
C1CCCC1,water,298,-2.6528,mol/L
C1CCCCCCC1,water,298,-4.1524,mol/L
CC(C)(C)C,water,298,-3.3371,mol/L
c1ccc2c(c1)cc3ccc4cccc5ccc2c3c45,water,298,-8.1924,mol/L
c1ccc2c(c1)ccc3cc4c(ccc5ccccc45)cc23,water,298,-8.6679,mol/L
Cc1ccc2cc3c(ccc4ccccc34)c5CCc1c25,water,298,-7.9663,mol/L
c1ccc2cc3c(ccc4ccccc34)cc2c1,water,298,-7.3854,mol/L
Cc1c2ccccc2c(C)c3c4ccccc4ccc13,water,298,-7.0109,mol/L
C1Cc2cccc3cccc1c23,water,298,-4.597,mol/L
c1ccc2c(c1)ccc3ccccc23,water,298,-5.1903,mol/L
C1c2ccccc2c3ccccc13,water,298,-4.9442,mol/L
[nH]1c2ccccc2c3ccccc13,water,298,-4.968,mol/L
c1ccc2cc3cc4ccccc4cc3cc2c1,water,298,-8.1795,mol/L
c1ccc2cc3ccccc3cc2c1,water,298,-6.6135,mol/L
c1cc2ccc3cccc4ccc(c1)c2c34,water,298,-6.1756,mol/L
s1c2ccccc2c3ccccc13,water,298,-5.0981,mol/L
c1cc2ccc3ccc4ccc5cccc6c(c1)c2c3c4c56,water,298,-9.0265,mol/L
c1cc2cccc3c4cccc5cccc(c(c1)c23)c45,water,298,-8.7999,mol/L
c1ccc2c(c1)c3cccc4cccc2c34,water,298,-5.992,mol/L
c1cc2cccc3C=Cc(c1)c23,water,298,-3.9756,mol/L
c1ccc2cc3c4ccccc4c5ccccc5c3cc2c1,water,298,-8.2405,mol/L
c1ccc2c(c1)c3ccccc3c4ccccc24,water,298,-6.7447,mol/L
c1ccc2c(c1)ccc3c4ccccc4ccc23,water,298,-8.0575,mol/L
c1ccc2c(c1)ccc3cc4ccc5ccccc5c4cc23,water,298,-8.4318,mol/L
C1c2ccccc2c3cc4ccccc4cc13,water,298,-7.733,mol/L
[O-][N+](=O)c1c2ccccc2cc3ccccc13,water,298,-6.2918,mol/L
[O-][N+](=O)c1ccc2c(Cc3ccccc23)c1,water,298,-5.9903,mol/L
Cc1ccc2cc3ccccc3cc2c1,water,298,-6.9555,mol/L
Cc1c2ccccc2cc3ccccc13,water,298,-5.8672,mol/L
Cc1c2ccccc2c(C)c3ccccc13,water,298,-6.5663,mol/L
Cc1cccc2c1ccc3ccccc23,water,298,-5.8541,mol/L
Cc1cccc2c1Cc3ccccc23,water,298,-5.2184,mol/L
Cc1ccc2c(ccc3ccccc23)c1,water,298,-5.8367,mol/L
CCc1ccc2cc3ccccc3cc2c1,water,298,-6.8863,mol/L
c1ccccc1,water,298,-1.6399,mol/L
Cc1ccccc1C,water,298,-2.7756,mol/L
Cc1ccc(C)c(C)c1,water,298,-3.324,mol/L
CC(C)(C)c1ccccc1,water,298,-3.658,mol/L
CC(C)c1ccccc1,water,298,-3.2924,mol/L
CC(=C)c1ccccc1,water,298,-3.0081,mol/L
CC(C)c1ccc(C)cc1,water,298,-3.7586,mol/L
CCc1ccccc1,water,298,-2.7981,mol/L
C=Cc1ccccc1,water,298,-2.5263,mol/L
C(c1ccccc1)c2ccccc2,water,298,-4.0767,mol/L
C(Cc1ccccc1)c2ccccc2,water,298,-4.6272,mol/L
CCCc1ccccc1,water,298,-3.3622,mol/L
CCCCc1ccccc1,water,298,-4.0559,mol/L
CCc1ccc(CC)cc1,water,298,-3.7334,mol/L
Cc1ccc(C)cc1,water,298,-2.8165,mol/L
Cc1cccc(C)c1,water,298,-2.8192,mol/L
Cc1cc(C)cc(C)c1,water,298,-3.3969,mol/L
Cc1ccccc1,water,298,-2.2435,mol/L
CCc1ccccc1CC,water,298,-3.2759,mol/L
CCC(C)c1ccccc1,water,298,-3.8823,mol/L
CCc1cccc(CC)c1,water,298,-3.7476,mol/L
Cc1cccc(C)c1C,water,298,-3.2037,mol/L
C#Cc1ccccc1,water,298,-2.3502,mol/L
CCCCCc1ccccc1,water,298,-4.6434,mol/L
CC(C)Cc1ccccc1,water,298,-4.1235,mol/L
CCc1ccccc1C,water,298,-3.2072,mol/L
Cc1ccc(cc1)c2ccc(C)cc2,water,298,-6.0177,mol/L
CCc1ccc(C)cc1,water,298,-3.1026,mol/L
Cc1cc(C)c(C)c(C)c1C,water,298,-3.9807,mol/L
CCCCCCc1ccccc1,water,298,-5.2551,mol/L
CCCCCCCCc1ccccc1,water,298,-6.46,mol/L
[O-][N+](=O)c1c(Cl)c(Cl)c(Cl)c(Cl)c1Cl,water,298,-5.8269,mol/L
COc1c(Cl)cc(Cl)cc1Cl,water,298,-4.3253,mol/L
Clc1cccc(Cl)c1Cl,water,298,-4.0035,mol/L
[O-][N+](=O)c1ccccc1Cl,water,298,-2.8964,mol/L
[O-][N+](=O)c1cc(Cl)ccc1Cl,water,298,-4.1372,mol/L
[O-][N+](=O)c1cc(Cl)c(Cl)cc1Cl,water,298,-3.8866,mol/L
Cc1ccccc1Cl,water,298,-2.5295,mol/L
Clc1ccccc1Cl,water,298,-2.9742,mol/L
[O-][N+](=O)c1ccc(Cl)c(Cl)c1,water,298,-3.2005,mol/L
[O-][N+](=O)c1ccc(Cl)cc1,water,298,-2.8453,mol/L
Brc1ccc(Br)cc1,water,298,-4.0717,mol/L
Cc1ccc(Br)cc1,water,298,-3.1917,mol/L
Clc1ccc(Br)cc1,water,298,-3.6298,mol/L
Cc1ccc(Cl)cc1,water,298,-3.0771,mol/L
Clc1ccc(Cl)cc1,water,298,-3.2572,mol/L
Brc1cccc(Br)c1,water,298,-3.5435,mol/L
Clc1cccc(Br)c1,water,298,-3.2102,mol/L
Clc1cc(Cl)cc(Cl)c1,water,298,-4.4799,mol/L
Brc1ccccc1,water,298,-2.5466,mol/L
Clc1ccccc1,water,298,-2.3542,mol/L
[O-][N+](=O)c1c(Cl)c(Cl)cc(Cl)c1Cl,water,298,-5.0963,mol/L
Clc1ccc(Cl)c(Cl)c1,water,298,-3.5686,mol/L
[O-][N+](=O)c1cccc(Cl)c1,water,298,-2.7613,mol/L
Fc1ccc(CCl)cc1,water,298,-2.5442,mol/L
Fc1cccc(F)c1,water,298,-2.0004,mol/L
Fc1ccccc1,water,298,-1.7952,mol/L
Fc1ccc(F)cc1,water,298,-1.9709,mol/L
Clc1cccc(Cl)c1,water,298,-3.0704,mol/L
Brc1ccccc1Br,water,298,-3.5,mol/L
Cc1cccc(Br)c1,water,298,-3.523,mol/L
Ic1ccccc1,water,298,-2.7782,mol/L
Clc1cc(Cl)c(Cl)c(Cl)c1Cl,water,298,-5.4789,mol/L
Fc1cccc(Cl)c1,water,298,-2.3457,mol/L
Clc1ccc(Cl)c(Cl)c1Cl,water,298,-4.5619,mol/L
Clc1cc(Cl)c(Cl)c(Cl)c1,water,298,-4.6267,mol/L
[O-][N+](=O)c1cc(Cl)c(Cl)c(Cl)c1Cl,water,298,-4.5531,mol/L
Fc1cccc(Br)c1,water,298,-2.6656,mol/L
[O-][N+](=O)c1ccc(Cl)c(Cl)c1Cl,water,298,-3.94,mol/L
[O-][N+](=O)c1c(Cl)cc(Cl)cc1Cl,water,298,-4.5591,mol/L
CN(C)C,water,298,1.1777,mol/L
CCCN(CCC)CCC,water,298,-2.2823,mol/L
CCCCC(CC)CN,water,298,-1.7135,mol/L
CCCCCCN,water,298,-0.926,mol/L
CCCCNCCCC,water,298,-1.4393,mol/L
CCN(CC)CC,water,298,-0.1377,mol/L
C=CCNCC=C,water,298,-0.053,mol/L
CCCNCCC,water,298,-0.2372,mol/L
Nc1ccccc1,water,298,-0.4128,mol/L
CCN(CC)c1ccccc1,water,298,-3.0278,mol/L
Nc1ccccc1Cl,water,298,-1.1941,mol/L
Cc1ccccc1N,water,298,-0.8099,mol/L
CNc1ccccc1,water,298,-1.2803,mol/L
Nc1ccc(Cl)cc1,water,298,-1.5147,mol/L
Cc1ccc(N)cc1,water,298,-1.2171,mol/L
Nc1cccc(Cl)c1,water,298,-1.3734,mol/L
Cc1cccc(N)c1,water,298,-0.8539,mol/L
CN(C)c1ccccc1,water,298,-1.9221,mol/L
N(c1ccccc1)c2ccccc2,water,298,-3.5042,mol/L
COc1ccc(C=O)cc1,water,298,-1.5016,mol/L
Nc1ccc(Cl)cc1Cl,water,298,-2.4172,mol/L
Nc1cc(Cl)cc(Cl)c1,water,298,-2.3153,mol/L
Oc1c(Cl)cccc1Cl,water,298,-1.9334,mol/L
Oc1c(Cl)c(Cl)c(Cl)c(Cl)c1Cl,water,298,-4.2793,mol/L
CC(C)c1ccc(C)cc1O,water,298,-2.2225,mol/L
CCc1ccccc1O,water,298,-1.3594,mol/L
COc1ccccc1O,water,298,-0.8221,mol/L
Oc1ccccc1c2ccccc2,water,298,-2.3859,mol/L
COc1cccc(OC)c1O,water,298,-0.9525,mol/L
Oc1ccc(cc1)c2ccccc2,water,298,-3.4812,mol/L
Cc1ccccc1O,water,298,-0.6207,mol/L
Oc1ccccc1Cl,water,298,-1.056,mol/L
Cc1ccc(O)cc1C,water,298,-1.4094,mol/L
Cc1ccc(C)c(O)c1,water,298,-1.538,mol/L
Oc1cc(Cl)c(Cl)cc1Cl,water,298,-2.2163,mol/L
CC(C)(C)c1ccc(O)cc1,water,298,-2.4133,mol/L
Cc1ccc(O)c(C)c1,water,298,-1.191,mol/L
Oc1ccc(Br)cc1,water,298,-1.092,mol/L
Cc1ccc(O)cc1,water,298,-0.7015,mol/L
Oc1ccc(Cl)cc1,water,298,-0.7289,mol/L
Cc1cccc(O)c1,water,298,-0.678,mol/L
Oc1cccc(Cl)c1,water,298,-0.6941,mol/L
Cc1cc(C)cc(O)c1,water,298,-1.3985,mol/L
Oc1ccccc1,water,298,-0.0556,mol/L
Oc1ccc(Cl)cc1Cl,water,298,-1.559,mol/L
CCc1ccc(O)cc1,water,298,-1.4752,mol/L
COc1ccc(O)cc1,water,298,-0.4919,mol/L
Cc1cc(C)c(O)c(C)c1,water,298,-2.055,mol/L
Oc1cccc(Cl)c1Cl,water,298,-1.6559,mol/L
Cc1cccc(C)c1O,water,298,-1.3052,mol/L
Oc1cc(Cl)ccc1Cl,water,298,-1.9112,mol/L
Oc1cccc(Br)c1,water,298,-0.8764,mol/L
Oc1cc(Cl)cc(Cl)c1,water,298,-1.559,mol/L
Oc1ccc(Br)cc1Br,water,298,-2.1225,mol/L
Cc1ccc(C)c(O)c1C,water,298,-1.9355,mol/L
CCCCCCCCCCCCCCCC(O)=O,water,298,-6.8069,mol/L
OC(=O)C(O)(c1ccccc1)c2ccccc2,water,298,-2.2092,mol/L
CC12[C@@H](O)C=C[C@@]3(OC1=O)[C@@H]4CC[C@]5(O)C[C@]4(CC5=C)[C@H]([C@H]23)C(O)=O,water,298,-1.8406,mol/L
OC(=O)CCl,water,298,0.9277,mol/L
CC(C)C(O)=O,water,298,0.2777,mol/L
CC(=C)C(O)=O,water,298,0.0144,mol/L
CCC(Br)C(O)=O,water,298,-0.3776,mol/L
OC(=O)Cc1cccc2ccccc12,water,298,-2.6468,mol/L
OC(=O)Cc1c[nH]c2ccccc12,water,298,-2.0674,mol/L
CCC(CC)C(O)=O,water,298,-0.8098,mol/L
OC(C(O)=O)c1ccccc1,water,298,0.0754,mol/L
Cc1cc(Cl)ccc1OCC(O)=O,water,298,-2.503,mol/L
OC(=O)C1CCCCC1,water,298,-1.445,mol/L
CCCC(CCC)C(O)=O,water,298,-1.858,mol/L
OC(=O)Cc1ccccc1,water,298,-0.9139,mol/L
CCCCC(O)=O,water,298,-0.4159,mol/L
C/C=C/C=C/C(O)=O,water,298,-1.6518,mol/L
OC(=O)CCCCCC(O)=O,water,298,-0.5056,mol/L
CCCCCCCCC(O)=O,water,298,-2.746,mol/L
CCCCCCCCCCC(O)=O,water,298,-3.5525,mol/L
OC(=O)CCCCCCCCC=C,water,298,-3.398,mol/L
OC(=O)C(c1ccccc1)c2ccccc2,water,298,-3.223,mol/L
OC(=O)COc1ccccc1,water,298,-1.1031,mol/L
OC(=O)COc1ccc(Cl)cc1,water,298,-2.29,mol/L
CCCCCCCC(O)=O,water,298,-2.2619,mol/L
OC(=O)\C=C\c1ccccc1,water,298,-2.4335,mol/L
CCCCCC(O)=O,water,298,-1.0522,mol/L
CCCCC(CC)C(O)=O,water,298,-1.858,mol/L
CCCCCCCCCC(O)=O,water,298,-3.4452,mol/L
OC(=O)CCc1ccccc1,water,298,-1.4058,mol/L
CCCCCCCCCCCCCC(O)=O,water,298,-5.3293,mol/L
OC(=O)COc1ccc(Cl)c(Cl)c1,water,298,-2.6846,mol/L
OC(=O)COc1ccccc1Cl,water,298,-2.1637,mol/L
OC(=O)\C=C\c1ccccc1,water,298,-2.4149,mol/L
COc1ccc(\C=C\C(O)=O)cc1,water,298,-2.3984,mol/L
C/C=C/C(O)=O,water,298,-0.0005,mol/L
CC(=O)Oc1ccccc1C(O)=O,water,298,-1.5929,mol/L
OC(=O)c1cc(Cl)cc(Cl)c1,water,298,-3.1137,mol/L
OC(=O)c1ccc(Cl)c(Cl)c1,water,298,-3.495,mol/L
OC(=O)c1ccc(cc1)[N+]([O-])=O,water,298,-2.922,mol/L
OC(=O)c1ccccc1,water,298,-1.5553,mol/L
OC(=O)c1ccc(Cl)cc1,water,298,-3.3374,mol/L
OC(=O)c1cccc2ccccc12,water,298,-3.3015,mol/L
OC(=O)c1cscc1,water,298,-1.4743,mol/L
OC(=O)c1occc1,water,298,-0.4802,mol/L
OC(=O)c1ccccc1I,water,298,-2.7308,mol/L
OC(=O)c1ccc2ccccc2c1,water,298,-3.5639,mol/L
CC(C)(C)c1ccc(cc1)C(O)=O,water,298,-3.8038,mol/L
Cc1cccc(c1)C(O)=O,water,298,-2.1428,mol/L
OC(=O)c1cc(cc(c1)[N+]([O-])=O)[N+]([O-])=O,water,298,-2.1962,mol/L
Cc1ccc(cc1)C(O)=O,water,298,-2.6025,mol/L
COc1ccc(cc1)C(O)=O,water,298,-2.458,mol/L
Cc1ccccc1C(O)=O,water,298,-2.0621,mol/L
OC(=O)c1ccccc1Cl,water,298,-1.8746,mol/L
OC(=O)c1cccc(c1)[N+]([O-])=O,water,298,-1.6691,mol/L
OC(=O)c1ccccc1F,water,298,-1.2892,mol/L
OC(=O)c1cccc(F)c1,water,298,-1.9704,mol/L
OC(=O)c1ccc(F)cc1,water,298,-2.0673,mol/L
OC(=O)c1cccc(Cl)c1,water,298,-2.5415,mol/L
CC(C)c1ccc(cc1)C(O)=O,water,298,-3.0364,mol/L
OC(=O)c1ccccc1[N+]([O-])=O,water,298,-1.3282,mol/L
COc1ccccc1C(O)=O,water,298,-1.4833,mol/L
OC(=O)c1cccc(Br)c1,water,298,-2.699,mol/L
OC(=O)c1ccc(Br)cc1,water,298,-3.5251,mol/L
OC(=O)c1cccc(I)c1,water,298,-3.2706,mol/L
OC(=O)c1ccc(I)cc1,water,298,-3.9631,mol/L
OCCc1ccccc1,water,298,-0.7406,mol/L
CCCCO,water,298,-0.0692,mol/L
CCCCCO,water,298,-0.6028,mol/L
CC(C)(C)CO,water,298,-0.4012,mol/L
CCC(C)(C)O,water,298,0.0962,mol/L
CC(C)CO,water,298,0.0595,mol/L
CCC(C)O,water,298,0.3877,mol/L
OC(c1ccccc1)c2ccccc2,water,298,-2.5494,mol/L
OCc1ccccc1,water,298,-0.4319,mol/L
OC1CCCCC1,water,298,-0.3774,mol/L
CCCCCCO,water,298,-1.2385,mol/L
CCCCCCCO,water,298,-1.8425,mol/L
CCCCCCCCO,water,298,-2.3823,mol/L
CCCCCCCCCCO,water,298,-3.6313,mol/L
CCCCCCCCCCCCO,water,298,-4.6682,mol/L
OCCCc1ccccc1,water,298,-1.3798,mol/L
OCCOc1ccccc1,water,298,-0.7139,mol/L
CC(C)CCO,water,298,-0.5187,mol/L
CCCCCCC(C)O,water,298,-2.0655,mol/L
CCC(C)CO,water,298,-0.4725,mol/L
CCCCCCCCCO,water,298,-3.013,mol/L
CCCCCC(C)O,water,298,-1.5507,mol/L
CCC(O)CC,water,298,-0.2334,mol/L
Cc1ccc(CO)cc1,water,298,-1.1999,mol/L
CCCC(O)CCC,water,298,-1.3931,mol/L
CCCCC(O)CC,water,298,-1.4631,mol/L
CC1CCC(O)CC1,water,298,-0.8815,mol/L
CC(C)C(C)O,water,298,-0.197,mol/L
CCCC(O)CC,water,298,-0.8025,mol/L
CCCCC(C)O,water,298,-0.8726,mol/L
CCCC(C)O,water,298,-0.2959,mol/L
OCc1c(Cl)cccc1Cl,water,298,-2.1019,mol/L
ClC(Cl)(Cl)Cl,water,298,-2.2877,mol/L
ClC1C(Cl)C(Cl)C(Cl)C(Cl)C1Cl,water,298,-4.6003,mol/L
ClC(Cl)Cl,water,298,-1.1766,mol/L
ClC(Cl)(Cl)C(Cl)(Cl)Cl,water,298,-3.6753,mol/L
CC(Cl)(Cl)Cl,water,298,-1.952,mol/L
CBr,water,298,-0.7956,mol/L
CCl,water,298,-0.9773,mol/L
CI,water,298,-1.0122,mol/L
BrCBr,water,298,-1.1646,mol/L
CCBr,water,298,-1.086,mol/L
ClCBr,water,298,-0.8892,mol/L
CCCl,water,298,-1.0553,mol/L
CCI,water,298,-1.6009,mol/L
ClCCl,water,298,-0.8151,mol/L
ICI,water,298,-2.3345,mol/L
CC(C)Cl,water,298,-1.4037,mol/L
CC(Cl)Cl,water,298,-1.2913,mol/L
CC(F)F,water,298,-1.3147,mol/L
FC(Cl)Cl,water,298,-0.7383,mol/L
FC(F)Cl,water,298,-1.4944,mol/L
FC(F)F,water,298,-1.2334,mol/L
FC(Cl)(Cl)Cl,water,298,-2.0965,mol/L
ClC(Cl)C(Cl)(Cl)Cl,water,298,-2.6248,mol/L
FC(F)(Cl)C(F)(Cl)Cl,water,298,-3.0423,mol/L
FC(F)(Cl)C(F)(F)Cl,water,298,-3.1188,mol/L
ClCC(Cl)Cl,water,298,-1.4798,mol/L
ClC(Cl)C(Cl)Cl,water,298,-1.7536,mol/L
BrCCBr,water,298,-1.6558,mol/L
CCCBr,water,298,-1.7007,mol/L
ClCCCl,water,298,-1.065,mol/L
BrC1CCCCC1,water,298,-2.2943,mol/L
CCCCBr,water,298,-2.1978,mol/L
CCCCCl,water,298,-1.9251,mol/L
ClCCCBr,water,298,-1.8469,mol/L
CCCCCBr,water,298,-3.0753,mol/L
CCCCCCBr,water,298,-3.8078,mol/L
ClCCCCl,water,298,-1.6137,mol/L
ClC1C(Cl)C(Cl)C(Cl)C(Cl)C1Cl,water,298,-5.1626,mol/L
ClC1C(Cl)C(Cl)C(Cl)C(Cl)C1Cl,water,298,-4.4636,mol/L
CCCCl,water,298,-1.4605,mol/L
CF,water,298,-0.1758,mol/L
CCCCCCCBr,water,298,-4.431,mol/L
CCCCCCCCl,water,298,-3.9957,mol/L
CCCCCCCI,water,298,-4.8102,mol/L
CCCCCC=O,water,298,-1.2494,mol/L
ClC(Cl)(Cl)C=O,water,298,-0.6913,mol/L
O=Cc1occc1,water,298,-0.0962,mol/L
[O-][N+](=O)c1cccc(C=O)c1,water,298,-1.9671,mol/L
O=Cc1ccccc1,water,298,-1.2083,mol/L
O=C/C=C/c1ccccc1,water,298,-1.9688,mol/L
C=CC=O,water,298,0.5777,mol/L
O=Cc1ccc2OCOc2c1,water,298,-1.6324,mol/L
CCC=O,water,298,0.7217,mol/L
CCCC=O,water,298,-0.0067,mol/L
[O-][N+](=O)c1ccccc1C=O,water,298,-1.8138,mol/L
[O-][N+](=O)c1ccc(C=O)cc1,water,298,-1.8101,mol/L
COC(C)=O,water,298,0.5159,mol/L
COC(=O)C(C)=C,water,298,-0.8244,mol/L
CCOC(=O)c1ccccc1C(=O)OCC,water,298,-2.3134,mol/L
CC(C)COC(=O)c1ccccc1C(=O)OCC(C)C,water,298,-4.6522,mol/L
CCCCOC(=O)c1ccccc1C(=O)OCCCC,water,298,-4.3954,mol/L
CCCCOC(=O)c1ccccc1C(=O)OCc2ccccc2,water,298,-5.0649,mol/L
COC(=O)c1ccccc1,water,298,-1.8118,mol/L
COC(=O)c1cccnc1,water,298,-0.4596,mol/L
CCOC(=O)c1ccccc1,water,298,-2.3193,mol/L
COC(=O)C=C,water,298,-0.2412,mol/L
CCOC(=O)C(C)=C,water,298,-1.3251,mol/L
CC(C)COC(=O)C(C)=C,water,298,-2.039,mol/L
CCCCOC(=O)C(C)=C,water,298,-2.2498,mol/L
CCOC(=O)\C=C\c1ccccc1,water,298,-2.9956,mol/L
CCOC(=O)CC,water,298,-0.7259,mol/L
CCOC(=O)NC,water,298,0.8255,mol/L
CCOC(=O)CC(=O)OCC,water,298,-0.8391,mol/L
CC(C)COC(=O)C=C,water,298,-1.8525,mol/L
CC(=O)OC=C,water,298,-0.6339,mol/L
COCC(C)OC(C)=O,water,298,0.1756,mol/L
CC(=C)C(=O)OCCOCCOCCOC(=O)C(C)=C,water,298,-1.9006,mol/L
CCCOC(C)=O,water,298,-0.7327,mol/L
CCOC=O,water,298,0.0758,mol/L
CCCCCCCCCC(=O)OC,water,298,-4.6268,mol/L
CCCOC=O,water,298,-0.6026,mol/L
COC(=O)c1ccc(OC)cc1,water,298,-2.4124,mol/L
CCOC(=O)CCC(=O)OCC,water,298,-0.96,mol/L
CCCCOC(C)=O,water,298,-1.1408,mol/L
COC(=O)c1ccccc1C(=O)OC,water,298,-1.6862,mol/L
CCCOC(=O)c1ccccc1C(=O)OCCC,water,298,-3.365,mol/L
C=CCOC(=O)c1ccccc1C(=O)OCC=C,water,298,-3.1313,mol/L
CCCCOC(=O)c1ccccc1,water,298,-3.4801,mol/L
CC(=O)OCc1ccccc1,water,298,-1.6853,mol/L
CCOC(=O)C=C,water,298,-0.8244,mol/L
CCCCOC(=O)C=C,water,298,-1.8068,mol/L
CCOC(C)=O,water,298,-0.0419,mol/L
CCOC(=O)CC(C)=O,water,298,-0.073,mol/L
CCC(=O)OC,water,298,-0.1498,mol/L
CC(=C)C(=O)OC(C)(C)C,water,298,-2.1529,mol/L
CC(C)OC(=O)c1ccccc1C(=O)OC(C)C,water,298,-2.8773,mol/L
CC(=C)C(=O)OCCO,water,298,-0.1144,mol/L
CC(=O)OCCBr,water,298,-0.6737,mol/L
CCCCCCCCC(=O)OC,water,298,-3.8764,mol/L
CCC(C)=O,water,298,0.4903,mol/L
O=C1c2ccccc2C(=O)c3ccccc13,water,298,-5.1882,mol/L
CCC(=O)c1ccccc1,water,298,-1.8267,mol/L
CCC(=O)CC,water,298,-0.253,mol/L
CC(=O)c1ccccc1,water,298,-1.2923,mol/L
O=C1C=CC(=O)C=C1,water,298,-0.9885,mol/L
CCCC(C)=O,water,298,-0.3017,mol/L
CC(C)CC(C)=O,water,298,-0.7219,mol/L
O=C1CCCCC1,water,298,-0.594,mol/L
CC(C)CCC(C)=O,water,298,-1.3252,mol/L
CCCCCC(C)=O,water,298,-1.4242,mol/L
CCCCCCC(C)=O,water,298,-2.1537,mol/L
O=C(c1ccccc1)c2ccccc2,water,298,-3.1239,mol/L
CC(C)C(C)=O,water,298,-0.1513,mol/L
CCCCC(C)=O,water,298,-0.7577,mol/L
CCCCCCCCC(C)=O,water,298,-3.3085,mol/L
CCCCCCCC(C)=O,water,298,-2.5836,mol/L
CC1CO1,water,298,1.0068,mol/L
C1OC1c2ccccc2,water,298,-1.6026,mol/L
ClCC1CO1,water,298,-0.1474,mol/L
CC(C)(O)C(Cl)(Cl)Cl,water,298,-1.346,mol/L
OCC(Cl)(Cl)Cl,water,298,-0.2537,mol/L
N#Cc1ccccc1,water,298,-1.7123,mol/L
CCC#N,water,298,0.2718,mol/L
C=CC#N,water,298,0.1474,mol/L
CCCC#N,water,298,-0.321,mol/L
N#CCCCCC#N,water,298,-0.1309,mol/L
CC(=C)C#N,water,298,-0.4218,mol/L
Clc1cccc(Cl)c1C#N,water,298,-3.9803,mol/L
CCC=C,water,298,-2.4046,mol/L
C=CC=C,water,298,-1.8668,mol/L
C1CCC=CC1,water,298,-2.5862,mol/L