Solute,Solvent,Temperature_K,Solubility,Units
COc1ccc(OC)c(c1)[N+]([O-])=O,water,298,-3.1167,mol/L
OC(=O)Cc1ccccc1C(O)=O,water,298,-1.0515,mol/L
Nc1ccc(Cl)cc1[N+]([O-])=O,water,298,-2.538,mol/L
Oc1ccc(Cl)cc1[N+]([O-])=O,water,298,-3.0902,mol/L
OCC(O)C(O)C1OC(=O)C(O)C1O,water,298,0.3348,mol/L
CC(C)c1cc(Cl)c(C)cc1O,water,298,-2.2664,mol/L
CC(C)[C@@H]1CC[C@@H](C)C[C@H]1O,water,298,-2.5346,mol/L
CC(C)C1CCC(C)CC1=O,water,298,-2.3506,mol/L
OC(=O)c1ccc(O)cc1O,water,298,-1.426,mol/L
COc1ccccc1N,water,298,-0.9901,mol/L
Brc1cccc2ccccc12,water,298,-4.3468,mol/L
C1CCN2C[C@@H]3C[C@@H](CN4CCCC[C@H]34)[C@@H]2C1,water,298,-1.8871,mol/L
COC(=CC(O)=O)C(=O)C(C)=C,water,298,-0.9299,mol/L
OCC1OC(=O)C(O)C(O)C1O,water,298,0.5201,mol/L
CN(C)c1ccc(cc1)C(=O)c2ccc(cc2)N(C)C,water,298,-2.8267,mol/L
N#Cc1ccccc1C#N,water,298,-2.5111,mol/L
C1CCC2CCCCC2C1,water,298,-5.1918,mol/L
c1ccc2nccnc2c1,water,298,0.7051,mol/L
Nc1ccc2ccccc2c1,water,298,-2.8795,mol/L
Nc1nc(N)nc(n1)c2ccccc2,water,298,-2.4942,mol/L
CN(C)CCN(Cc1sccc1)c2ccccn2,water,298,-2.6383,mol/L
Oc1ccc(cc1O)c2ccccc2,water,298,-2.0659,mol/L
c1ccc(cc1)c2cccc(c2)c3ccccc3,water,298,-5.183,mol/L
[Cl-].CN(C)c1ccc2nc3cc(C)c(N)cc3[s+]c2c1,water,298,-0.9034,mol/L
Oc1cc2ccccc2cc1O,water,298,-2.7377,mol/L
CCN(CCO)c1ccccc1,water,298,-1.9171,mol/L
Nc1ccc2cc3ccc(N)cc3nc2c1,water,298,0.3783,mol/L
CC(=O)c1ccc(cc1)c2ccccc2,water,298,-3.3104,mol/L
[O-][N+](=O)c1ccc(cc1)c2ccccc2,water,298,-5.2094,mol/L
COc1ccc(OC)c(C=O)c1,water,298,-2.3202,mol/L
CC(=O)c1ccc2ccccc2c1,water,298,-2.7964,mol/L
OC(=O)c1ccc2ccccc2n1,water,298,-1.0911,mol/L
COc1ccccc1OCC(O)CO,water,298,-0.5982,mol/L
COc1ccc(CC=C)cc1OC,water,298,-2.552,mol/L
Cc1ccc2ccc(C)nc2c1,water,298,-1.9424,mol/L
ClCC(=O)N(CC=C)CC=C,water,298,-0.9452,mol/L
OC(=O)CCCOc1cc(Cl)c(Cl)cc1Cl,water,298,-3.8294,mol/L
CC(=O)CC(=O)c1ccccc1,water,298,-2.6268,mol/L
O=C(OC(=O)c1ccccc1)c2ccccc2,water,298,-4.3546,mol/L
CC(C)OC(=O)COc1ccc(Cl)cc1Cl,water,298,-3.848,mol/L
CC(C)COC(=O)c1ccc(N)cc1,water,298,-2.9437,mol/L
CCOc1ccc(cc1)C(=O)OCCN(CC)CC,water,298,-2.7145,mol/L
CCCCOC(=O)c1ccc(N)cc1,water,298,-2.7611,mol/L
[I-].CN1C=CC=C\C1=C/[NH+]=O,water,298,-0.7405,mol/L
CCCCOC(=O)COc1ccc(Cl)cc1Cl,water,298,-3.78,mol/L
Cc1cc(Cl)ccc1OCCCC(O)=O,water,298,-3.678,mol/L
Clc1ccc(OCCOC(=O)c2ccccc2)c(Cl)c1,water,298,-3.8118,mol/L
CCCC(O)C(CC)CO,water,298,-0.5418,mol/L
CCN(CC)C(=S)SCC(Cl)=C,water,298,-3.3498,mol/L
CCC(CC)C(=O)OCCOCCOCCOC(=O)C(CC)CC,water,298,-3.2386,mol/L
C\C(NO)=C(/C)N=O,water,298,-2.2868,mol/L
Cc1ccc(N)cc1C,water,298,-1.5036,mol/L
Cc1ccc(Cl)c(Cl)c1,water,298,-3.7919,mol/L
Oc1ccc(Cl)c(Cl)c1,water,298,-1.2458,mol/L
CCOC(=O)C(=O)OCC,water,298,-0.6085,mol/L
ClCC(Br)CBr,water,298,-2.2836,mol/L
OCC(Br)CBr,water,298,-0.6222,mol/L
ClCC(Cl)CCl,water,298,-1.9255,mol/L
CCC(N)CO,water,298,1.0499,mol/L
OCC(O)CCl,water,298,0.9565,mol/L
CC\C(C)=N\O,water,298,0.0599,mol/L
COC(=O)CCl,water,298,-0.3728,mol/L
CC1CCCO1,water,298,0.2069,mol/L
O=C1CCCO1,water,298,1.065,mol/L
O=C1OCCO1,water,298,1.0552,mol/L
CC(O[P](C)(F)=O)C(C)(C)C,water,298,-0.9383,mol/L
CC(C)(C)c1ccc(O)c(c1)C(C)(C)C,water,298,-3.7705,mol/L
CC(C)N(CCO)C(C)C,water,298,-1.0829,mol/L
CC(C)[C@H](NC(C)=O)C(O)=O,water,298,-0.3599,mol/L
CN1CCCCC1C(=O)Nc2c(C)cccc2C,water,298,-1.5465,mol/L
COc1ccc(N)c(c1)[N+]([O-])=O,water,298,-3.1465,mol/L
Oc1c(Cl)cc(Cl)cc1Sc2cc(Cl)cc(Cl)c2O,water,298,-4.9495,mol/L
Cc1ccccc1N=Nc2ccc(N)c(C)c2,water,298,-4.5077,mol/L
NC(=O)NC1NC(=O)NC1=O,water,298,-1.4778,mol/L
CCCC(C)C(O)=O,water,298,-0.889,mol/L
CCOC(=O)C(C)O,water,298,0.9276,mol/L
OC(=O)CC(=C)C(O)=O,water,298,-0.2289,mol/L
CC(C)COC(=O)C(C)C,water,298,-2.159,mol/L
CCC(CC)CO,water,298,-1.4073,mol/L
OCC1CCCO1,water,298,0.9908,mol/L
OCc1occc1,water,298,1.0083,mol/L
Nc1cccc(c1)C(F)(F)F,water,298,-1.4704,mol/L
CC(C)(C)c1ccc(O)c(O)c1,water,298,-1.9197,mol/L
COc1ccc(cc1N)[S](O)(=O)=O,water,298,-0.8997,mol/L
Nc1cc(ccc1C(O)=O)[S](O)(=O)=O,water,298,-1.3157,mol/L
CC(C)(C)C1CCC(O)CC1,water,298,-3.1939,mol/L
CC1=CC[C@@H](CC1)C(C)(C)O,water,298,-2.337,mol/L
Cl[S](=O)(=O)c1ccc(I)cc1,water,298,-4.2686,mol/L
CC(N)c1ccccc1,water,298,-0.4602,mol/L
CC(O)c1ccccc1,water,298,-1.7969,mol/L
ClC(Cl)c1ccccc1,water,298,-2.809,mol/L
OC(=O)c1ccccn1,water,298,0.892,mol/L
OCc1ccccc1O[C@@H]2O[C@H](COC(=O)c3ccccc3)[C@@H](O)[C@H](O)[C@H]2O,water,298,-2.8925,mol/L
COC(=O)c1cc(O)c(O)c(O)c1,water,298,-1.2399,mol/L
Nc1c(Cl)cc(cc1Cl)[N+]([O-])=O,water,298,-4.4709,mol/L
OC(=O)C1=CC(=O)C=C(O1)C(O)=O,water,298,-1.1097,mol/L
CC(=C)C1CC=C(C)C(=O)C1,water,298,-2.0628,mol/L
Nc1cc(ccc1O)[N+]([O-])=O,water,298,-2.2217,mol/L
COc1ccc(cc1N)[N+]([O-])=O,water,298,-3.165,mol/L
CCC(C)c1ccc(O)cc1,water,298,-2.1945,mol/L
CC1CCC(CC1)C(C)C,water,298,-5.6998,mol/L
CC(C)C1=CCC(=CC1)C,water,298,-4.1958,mol/L
Oc1ccc(cc1)[N+]([O-])=O,water,298,-1.0789,mol/L
OC(=O)c1ccc(cc1)C(O)=O,water,298,-4.0444,mol/L
CCN(CC)CCO,water,298,0.9311,mol/L
C=CC1CCC=CC1,water,298,-3.3352,mol/L
NCc1ccccc1,water,298,0.97,mol/L
N#Cc1ccncc1,water,298,-0.4154,mol/L
N#Cc1cccnc1,water,298,0.1128,mol/L
OCc1cccnc1,water,298,0.9621,mol/L
ON=C1CCCCC1,water,298,-0.7984,mol/L
OCC1CCCCO1,water,298,0.9349,mol/L
CCN1CCOCC1,water,298,0.9386,mol/L
Cc1cccc(C=C)c1,water,298,-3.1232,mol/L
CC(Oc1cccc(Cl)c1)C(O)=O,water,298,-2.2232,mol/L
Nc1ccc(Cc2ccc(N)c(Cl)c2)cc1Cl,water,298,-4.2838,mol/L
ClCC#CCOC(=O)Nc1cccc(Cl)c1,water,298,-4.3704,mol/L
CN1[C@@H]2CC[C@H]1CC(C2)OC(=O)[C@H](CO)c3ccccc3,water,298,-1.91,mol/L
Oc1ccc(Cc2ccccc2)cc1,water,298,-3.4009,mol/L
Nc1ccc(Cc2ccc(N)cc2)cc1,water,298,-2.2973,mol/L
NC(Nc1ccccc1)=Nc2ccccc2,water,298,-2.3248,mol/L
O=C(Nc1ccccc1)Nc2ccccc2,water,298,-3.1508,mol/L
CCc1cc(CC)cc(CC)c1,water,298,-7.0641,mol/L
CCN(CC)CN(CC)CC,water,298,-0.1995,mol/L
CC(O)CN(CCN(CC(C)O)CC(C)O)CC(C)O,water,298,0.534,mol/L
C=CCN(CC=C)CC=C,water,298,-1.7395,mol/L
OCCN(CCO)CCO,water,298,0.8263,mol/L
CCCCN(CCO)CCCC,water,298,-1.6367,mol/L
CCCCN(CCCC)CCCC,water,298,-3.1157,mol/L
CCCCC(CC)COC(=O)C=C,water,298,-3.2655,mol/L
CCCCC(CC)COC(=O)CCCCC(=O)OCC(CC)CCCC,water,298,-5.6768,mol/L
BrCCc1ccccc1,water,298,-3.6757,mol/L
CNCc1ccccc1,water,298,0.9166,mol/L
CCNc1ccccc1,water,298,-1.7007,mol/L
CN(C)Cc1ccccc1,water,298,-1.0518,mol/L
CC(=O)Nc1ccc(C)cc1,water,298,-2.0946,mol/L
CC(=O)Nc1ccc(cc1)[N+]([O-])=O,water,298,-1.9132,mol/L
CC(=O)Nc1ccc(cc1)/C=N/NC(N)=S,water,298,-3.429,mol/L
Cc1ccc(cc1)[S](O)(=O)=O,water,298,0.5564,mol/L
CCOCCOC(=O)/C=C/c1ccc(OC)cc1,water,298,-2.6995,mol/L
OCC(O)COc1ccc(Cl)cc1,water,298,-1.3067,mol/L
CCCCCCCCCc1ccc(O)cc1,water,298,-4.498,mol/L
COc1ccc(\C=C\C)cc1,water,298,-3.1256,mol/L
CCCCCCCCCCc1ccccc1,water,298,-7.959,mol/L
CCCCC(CC)CO,water,298,-2.1702,mol/L
OCC1CCC(CO)O1,water,298,0.8789,mol/L
Cc1ccc(C=O)cc1,water,298,-1.7235,mol/L
CCc1ccc(C)nc1,water,298,-1.0042,mol/L
COc1ccc(N)cc1,water,298,-0.7683,mol/L
COc1ccc(CO)cc1,water,298,-1.8394,mol/L
CCCC(C)CO,water,298,-1.2312,mol/L
CCCC(O)C#C,water,298,-0.4121,mol/L
CCOC(=O)CCl,water,298,-0.8005,mol/L
COC(=O)CC(C)=O,water,298,0.6341,mol/L
CCC(C)OC(C)=O,water,298,-1.2727,mol/L
CCCC(=O)OCC,water,298,-1.3749,mol/L
CCOC(=O)CC#N,water,298,-0.7525,mol/L
CN(CCO)CCO,water,298,0.9239,mol/L
CCCC(=O)OCCOC(=O)CCC,water,298,-2.6069,mol/L
CCCCOC(=O)\C=C/C(=O)OCCCC,water,298,-2.6595,mol/L
COCCOC(=O)CCCCC(=O)OCCOC,water,298,-1.2665,mol/L
CC(C)=CCC\C(C)=C\CO,water,298,-3.1882,mol/L
CC(C)=CCC\C(C)=C/CO,water,298,-2.4631,mol/L
CCCCCCC(=O)OCC,water,298,-2.7369,mol/L
CCCCCCCC(=O)OCC,water,298,-3.3907,mol/L
Oc1ccc(O)cc1.O=C2C=CC(=O)C=C2,water,298,-1.7305,mol/L
CCCCC(=O)CC,water,298,-1.4242,mol/L
CCCOC(=O)CC,water,298,-1.3406,mol/L
O=C1CNC(=O)CN1,water,298,-0.8312,mol/L
CC(O)COC(C)CO,water,298,0.8723,mol/L
COC(=O)CCC(=O)OC,water,298,-0.7668,mol/L
CCCCCC(=O)CC,water,298,-1.693,mol/L
CCCCCC(=O)OC,water,298,-1.9917,mol/L
COC(=O)CCCCCCCCC(=O)OC,water,298,-3.2831,mol/L
CCC1CO1,water,298,0.1197,mol/L
BrCC#C,water,298,-0.9022,mol/L
CCC#C,water,298,-1.2753,mol/L
CCCS,water,298,-1.6021,mol/L
ClCCBr,water,298,-1.3177,mol/L
ClCC=C,water,298,-1.3562,mol/L
OCCCl,water,298,1.0941,mol/L
CC(C)I,water,298,-2.201,mol/L
NCC=C,water,298,1.2434,mol/L
ClCC#N,water,298,0.1221,mol/L
NCCN,water,298,1.2211,mol/L
OCC=C,water,298,1.236,mol/L
OCC#C,water,298,1.2513,mol/L
OCCO,water,298,1.2071,mol/L
O=CC=O,water,298,1.2363,mol/L
COC=C,water,298,-0.5879,mol/L
COC=O,water,298,0.5832,mol/L
NCC[S](O)(=O)=O,water,298,-0.1906,mol/L
OCC[S](O)(=O)=O,water,298,0.8992,mol/L
CC(O)CC(C)(C)O,water,298,0.9275,mol/L
CC(C)O[P](C)(F)=O,water,298,0.8536,mol/L
C[Si](C)(C)O[Si](C)(C)C,water,298,-5.242,mol/L
CCO[P](=O)(OCC)O[P](=O)(OCC)OCC,water,298,0.5373,mol/L
C[Si](C)(C)O[Si](C)(C)O[Si](C)(C)C,water,298,-6.8424,mol/L
CCCCO[P](O)(=O)OCCCC,water,298,-1.0874,mol/L
NC(=O)OCC(Cl)(Cl)Cl,water,298,-1.2843,mol/L
COC(C)(C)CC(C)=O,water,298,0.3326,mol/L
CC(C)CCBr,water,298,-2.886,mol/L
CCCC(C)C,water,298,-3.7893,mol/L
CC(O)CCO,water,298,1.0452,mol/L
CC(O)CC=O,water,298,1.055,mol/L
NC(=O)CC#N,water,298,0.1893,mol/L
CCCC(O)=O,water,298,-0.1669,mol/L
C/C=C/C(O)=O,water,298,0.0382,mol/L
NCCC(O)=O,water,298,0.7865,mol/L
CNCC(O)=O,water,298,0.5273,mol/L
COCC(C)O,water,298,1.0452,mol/L
CN(C)CCO,water,298,1.0499,mol/L
CC(C)CC(C)C,water,298,-4.2605,mol/L
CC(C)CC(C)O,water,298,-0.7945,mol/L
CC(C)NC(C)C,water,298,0.0363,mol/L
CC(C)OC(C)=O,water,298,-0.5192,mol/L
CC(=O)OC(C)=O,water,298,0.0702,mol/L
C=C1OC(=O)C=C1,water,298,-0.9827,mol/L
CCO[P](=O)(OCC)Oc1cc(C)[nH]n1,water,298,-2.3696,mol/L
Cc1cccc(Cl)c1,water,298,-3.5228,mol/L
CC1OC(C)OC(C)OC(C)O1,water,298,-2.8997,mol/L
CCOC(=O)CC(C)C,water,298,-1.8135,mol/L
Oc1cc(O)cc(O)c1,water,298,-1.0754,mol/L
Cc1cc(C)nc(C)c1,water,298,-0.5394,mol/L
Nc1nc(N)nc(N)n1,water,298,-1.5916,mol/L
O=C1NC(=O)NC(=O)N1,water,298,-1.8098,mol/L
CC(C)CC(O)CC(C)C,water,298,-2.5108,mol/L
CC(C)CC(=O)CC(C)C,water,298,-1.7314,mol/L
CC(C)CC(C)OC(C)=O,water,298,-2.0451,mol/L
CC1CCCCC1,water,298,-3.8459,mol/L
Cc1ccncc1,water,298,1.0309,mol/L
NC1CCCCC1,water,298,1.0036,mol/L
Sc1ccccc1,water,298,-2.1204,mol/L
Cc1cccnc1,water,298,1.0309,mol/L
CN1CCOCC1,water,298,0.995,mol/L
Cc1ccccn1,water,298,1.0309,mol/L
CC1CNCCN1,water,298,0.6378,mol/L
Cc1cnccn1,water,298,1.0263,mol/L
CCCCOC(=O)CCC,water,298,-2.4601,mol/L
CCCCOC(=O)CCCCCCCCC(=O)OCCCC,water,298,-3.8955,mol/L
CCOCCOC(=O)CCCCC(=O)OCCOCC,water,298,-2.065,mol/L
CCC#CC(C)O,water,298,-0.4121,mol/L
CC(C)COC=C,water,298,-1.5236,mol/L
CN(C)CCCN,water,298,0.9906,mol/L
CC(C)OCCO,water,298,0.9823,mol/L
BrCCCBr,water,298,-2.0747,mol/L
CCCC=C,water,298,-2.6757,mol/L
CC\C=C/C,water,298,-2.5384,mol/L
CCCCN,water,298,1.1359,mol/L
OCCC#N,water,298,1.1483,mol/L
CCCCS,water,298,-2.1792,mol/L
CNCCO,water,298,1.1243,mol/L
NNCCO,water,298,1.1186,mol/L
COCCO,water,298,1.1186,mol/L
CCNCC,water,298,1.1359,mol/L
C=COC=C,water,298,-0.9597,mol/L
C1CCOC1,water,298,1.142,mol/L
CC(C)(C)OOC(C)(C)C,water,298,-3.165,mol/L
OC(=O)\C=C\C(O)=O,water,298,0.5794,mol/L
CC(C)COC(C)=O,water,298,-1.2657,mol/L
CC(C)=NNC(N)=O,water,298,-0.2674,mol/L
CCCCCCCCCC(=O)OCC,water,298,-4.1006,mol/L
CCOC(=O)CCCCCCCCC(=O)OCC,water,298,-3.5091,mol/L
CC(C)CCOC=O,water,298,-1.5206,mol/L
COCCOC(C)=O,water,298,0.9276,mol/L
BrCCCCBr,water,298,-2.7902,mol/L
ClCCCCCl,water,298,-0.92,mol/L
ClC/C=C/CCl,water,298,-2.1675,mol/L
CCCCCN,water,298,1.0597,mol/L
CCCCC=O,water,298,-0.867,mol/L
OCCCCO,water,298,1.0452,mol/L
OCC#CCO,water,298,0.6379,mol/L
CCCCCS,water,298,-2.8248,mol/L
COCCOC,water,298,1.0452,mol/L
ClCCOC=C,water,298,-2.3951,mol/L
CCOCCO,water,298,1.0452,mol/L
C1CNCCN1,water,298,1.0648,mol/L
c1ccncc1,water,298,1.1018,mol/L
C1COCCN1,water,298,1.0599,mol/L
OC(=O)CCCC(O)=O,water,298,1.0832,mol/L
CC[C@H](C)[NH2+][C@H](C)CC,water,298,-1.769,mol/L
CC(O)CNCC(C)O,water,298,0.81,mol/L
OC(=O)COCC(O)=O,water,298,0.4927,mol/L
CCCCCCCC(=O)OC,water,298,-3.3904,mol/L
CCCCCCC(O)=O,water,298,-1.6646,mol/L
CCOCCOC(C)=O,water,298,0.2716,mol/L
OC(=O)CCSCCC(O)=O,water,298,-0.6807,mol/L
OC(=O)CCCCCCCCC(O)=O,water,298,-2.3059,mol/L
[O-][N+](=O)OCCOCCOCCO[N+]([O-])=O,water,298,-1.561,mol/L
CCCCOC=C,water,298,-1.5236,mol/L
NCCNCCN,water,298,0.9864,mol/L
NCCNCCO,water,298,0.9823,mol/L
OCCNCCO,water,298,0.9782,mol/L
OCCOCCO,water,298,0.9742,mol/L
OCCSCCO,water,298,0.913,mol/L
C1CCCNCC1,water,298,0.234,mol/L
CC(=O)OCCOC(C)=O,water,298,0.0857,mol/L
CCCCCCC=O,water,298,-1.9607,mol/L
CCCCNCCO,water,298,0.9311,mol/L
CCCCOCCO,water,298,0.9275,mol/L
COCCOCCO,water,298,0.9203,mol/L
CCCCCCCCC,water,298,-5.7657,mol/L
CCCCCCCCCl,water,298,-4.4829,mol/L
CCCCCCCCN,water,298,-2.8104,mol/L
CCOCCOCCO,water,298,0.8723,mol/L
ClCCOCOCCCl,water,298,-1.3461,mol/L
COCCOCCOC,water,298,0.8723,mol/L
CCCCOCCOC(C)=O,water,298,-1.2504,mol/L
CCOCCOCCOC(C)=O,water,298,0.754,mol/L
NCCNCCNCCN,water,298,1.5136,mol/L
ClCCOCCOCCCl,water,298,-0.9955,mol/L
OCCOCCOCCO,water,298,0.8234,mol/L
CCCCOCCOCCO,water,298,0.7899,mol/L
COCCOCCOCCO,water,298,0.7846,mol/L
CCOCCOCCOCC,water,298,0.7899,mol/L
CCOCCOCCOCCO,water,298,0.749,mol/L
NCCNCCNCCNCCN,water,298,1.5381,mol/L
CCCCCCOCCOCCO,water,298,-1.049,mol/L
OCCOCCOCCOCCO,water,298,0.7117,mol/L
CCCCCCCCCCCCCCO,water,298,-6.0502,mol/L
CCCCCCCCCCCCCCCCCCCCCC(O)=O,water,298,-7.3281,mol/L
CCCCCCCCCCCCCCCCCCO,water,298,-8.3908,mol/L
CCCCCCCCCCCCCCCCCCCC,water,298,-8.1724,mol/L
CNC(=O)Oc1ccccc1OC(C)C,water,298,-2.0512,mol/L
CC=C,water,298,-2.3231,mol/L
CC(C)(O)C=C,water,298,1.0648,mol/L
CC(C)(O)C#C,water,298,1.0751,mol/L
FC1(F)C(F)(F)C(F)(F)C1(F)F,water,298,-3.9276,mol/L
CN(C)[P](F)(=O)N(C)C,water,298,0.8121,mol/L
OC(=O)C1C(C(O)=O)C2(Cl)C(=C(Cl)C1(Cl)C2(Cl)Cl)Cl,water,298,-2.0457,mol/L
CC(N)(CO)CO,water,298,0.9782,mol/L
CCC(N)(CO)CO,water,298,0.9239,mol/L
CCC(CC)(CO)CO,water,298,0.1798,mol/L
OCC(CO)(CO)CO,water,298,-0.2749,mol/L
CCCCCCCCO[P](=O)(Oc1ccccc1)Oc2ccccc2,water,298,-6.4131,mol/L
CO[P](=O)(Oc1ccccc1)Oc2ccccc2,water,298,-2.1209,mol/L
ClCCO[P](=O)(OCCCl)OCCCl,water,298,-1.6105,mol/L
CCNC(=O)CS[P](=S)(OC)OC,water,298,-1.4567,mol/L
CNC(=O)O\N=C\C(C)(C)SC,water,298,-1.4991,mol/L
CC(=O)CO,water,298,1.1303,mol/L
COC(C)=C,water,298,1.142,mol/L
FC(F)=C(F)F,water,298,-2.8001,mol/L
CC1(C)N(CO)C(=O)NC1=O,water,298,0.8009,mol/L
Clc1ccc(cc1)[S](=O)(=O)c2cc(Cl)c(Cl)cc2Cl,water,298,-6.6594,mol/L
CCC(C)C(O)=O,water,298,-0.3559,mol/L
Nc1ccc(O)c2C(=O)c3ccccc3C(=O)c12,water,298,-3.824,mol/L
O[S](=O)(=O)c1cccc2C(=O)c3c(cccc3[S](O)(=O)=O)C(=O)c12,water,298,0.2572,mol/L
Nc1ccc2C(=O)c3ccccc3C(=O)c2c1,water,298,-6.1366,mol/L
ClC1=C(Cl)C(=O)c2ccccc2C1=O,water,298,-4.453,mol/L
COCCOC(=O)c1ccccc1C(=O)OCCOC,water,298,-1.5213,mol/L
CCCCCCCCOC(=O)c1ccccc1C(=O)OCCCCCCCC,water,298,-7.2493,mol/L
COc1ccc2C(OC(=O)c2c1OC)C3N(C)CCc4cc5OCOc5cc34,water,298,-4.1065,mol/L
O[C@H]([C@H]1C[C@@H]2CCN1C[C@@H]2C=C)c3ccnc4ccccc34,water,298,-3.0887,mol/L
CCNc1cccc2ccccc12,water,298,-3.1922,mol/L
CC1(C)N(Cl)C(=O)N(Cl)C1=O,water,298,-2.5955,mol/L
Oc1ccccc1C(=O)Oc2ccccc2,water,298,-3.1548,mol/L
ClC1=C(Cl)C(=O)C(=C(Cl)C1=O)Cl,water,298,-2.9928,mol/L
[O-][N+](=O)c1ccc(Cl)cc1C(F)(F)F,water,298,-3.3533,mol/L
CCO[P](=S)(OCC)OC1=NN(C(=O)C=C1)c2ccccc2,water,298,-3.5319,mol/L
Oc1ccc(Nc2ccc(cc2[N+]([O-])=O)[N+]([O-])=O)cc1,water,298,-5.444,mol/L
Oc1cc(cc2ccc(Nc3ccccc3)cc12)[S](O)(=O)=O,water,298,-1.9763,mol/L
CC(C)n1nc(C)cc1OC(=O)N(C)C,water,298,0.6752,mol/L
Cc1cc(Cc2cc(C)cc(c2O)C(C)(C)C)c(O)c(c1)C(C)(C)C,water,298,-7.2311,mol/L
CCCCN(CCN(CCCC)C(=O)N1CCOCC1)C(=O)N2CCOCC2,water,298,0.0985,mol/L
OC(c1ccccc1)C(=O)c2ccccc2,water,298,-2.8497,mol/L
OC(c1ccccc1)c2ccc(Cl)cc2,water,298,-3.4886,mol/L
C1CCc2ccccc2C1,water,298,-3.4492,mol/L
CNc1ccccc1C(O)=O,water,298,-2.8784,mol/L
Cc1cc(ccc1N)c2ccc(N)c(C)c2,water,298,-2.213,mol/L
OCCN(CCO)c1ccccc1,water,298,-0.7345,mol/L
COc1ccc(C=O)cc1OC,water,298,-1.4199,mol/L
CCOc1ccc(C=O)cc1OC,water,298,-2.1913,mol/L
Oc1ccc(Cl)cc1Cc2ccccc2,water,298,-3.1666,mol/L
COC(=O)c1ccc(cc1)C(=O)OC,water,298,-4.0095,mol/L
[nH]1cnc2ncncc12,water,298,0.6194,mol/L
S(Sc1sc2ccccc2n1)c3sc4ccccc4n3,water,298,-4.5218,mol/L
CC(C)=C[C@@H]1[C@@H](C(=O)O[C@H]2CC(=O)C(=C2C)C\C=C/C=C)C1(C)C,water,298,-6.2155,mol/L
COC(=O)C(/C)=C/[C@@H]1[C@@H](C(=O)O[C@H]2CC(=O)C(=C2C)C\C=C/C=C)C1(C)C,water,298,-4.6168,mol/L
CCOc1cc(C=O)ccc1O,water,298,-1.7703,mol/L
Nc1ccc(cc1)[S](O)(=O)=O,water,298,-1.2051,mol/L
CCCOC(=O)c1cc(O)c(O)c(O)c1,water,298,-1.7827,mol/L
[O-][N+](=O)N1CN(CN(C1)[N+]([O-])=O)[N+]([O-])=O,water,298,-3.5706,mol/L
CN(C)C(=O)OC1=CC(=O)CC(C)(C)C1,water,298,-0.8477,mol/L
CC(O)CN(CC(C)O)CC(C)O,water,298,0.6374,mol/L
C1OC1COc2ccccc2,water,298,-1.7964,mol/L
N(Nc1ccccc1)c2ccccc2,water,298,-2.921,mol/L
OCCNc1ccccc1,water,298,-0.4745,mol/L
CCCCC(CC)CCl,water,298,-3.1723,mol/L
CCCCC(CC)C=O,water,298,-2.5059,mol/L
CCCC(C)C=O,water,298,-1.3774,mol/L
CCCC(=O)CCC,water,298,-1.5525,mol/L
OC(=O)CCC(=O)OOC(=O)CCC(O)=O,water,298,-0.8471,mol/L
CCCCCCCCC(=O)OCC,water,298,-3.8007,mol/L
CC(C)=CCCC(=C)C=C,water,298,-4.3861,mol/L
CNC=O,water,298,1.2286,mol/L
CC(=O)CC(C)(C)O,water,298,0.9349,mol/L
O=C1CCC(=O)N1,water,298,0.2962,mol/L
CCCCCC(=O)OCC,water,298,-2.3607,mol/L
CCCCCCCCOC(=O)CCCCC(=O)OCCCCCCCC,water,298,-5.6768,mol/L
CC(O)CNCCN,water,298,0.9275,mol/L
C1COCCO1,water,298,1.055,mol/L
CC(C)CCOC(C)=O,water,298,-1.8135,mol/L
OC(=O)CSCC(O)=O,water,298,0.4255,mol/L
CCCCCCCC=O,water,298,-2.3598,mol/L
CCCCOCCOCCOC(C)=O,water,298,-0.8188,mol/L
CCCCCCCCCC,water,298,-6.4372,mol/L
CCCCCCCCC=O,water,298,-3.1708,mol/L
CCCCCCCCCCCCN,water,298,-3.3759,mol/L
ClC(Br)Br,water,298,-1.8873,mol/L
C[As](O)(O)=O,water,298,0.2622,mol/L
[Cl-].OC[P+](CO)(CO)CO,water,298,0.322,mol/L
CC(C)(N)CO,water,298,1.0499,mol/L
FC(F)(Br)C(F)(F)Br,water,298,-4.9376,mol/L
CC1(C)[C@H](CC[C@@]1(C)C([O-])=O)C([O-])=O,water,298,-1.4207,mol/L
CC(=C)[C@@H]1C2OC(=O)C1[C@]3(O)CC4O[C@]45C(=O)O[C@H]2[C@]35C.CC(C)(O)[C@@H]6C7OC(=O)C6[C@]8(O)C[C@H]9O[C@]9%10C(=O)O[C@H]7[C@]8%10C,water,298,-2.1672,mol/L
OCC(CO)(CO)[N+]([O-])=O,water,298,1.1631,mol/L
CC(=O)OC[C@H]1O[C@H](O[C@]2(COC(C)=O)O[C@H](COC(C)=O)[C@@H](OC(C)=O)[C@@H]2OC(C)=O)[C@H](OC(C)=O)[C@@H](OC(C)=O)[C@@H]1OC(C)=O,water,298,-2.8726,mol/L
NC(=O)OC1(CCCCC1)C#C,water,298,-1.8253,mol/L
OCC(CO)(CO)COCC(CO)(CO)CO,water,298,-1.9582,mol/L
BrCC(Br)CO[P](=O)(OCC(Br)CBr)OCC(Br)CBr,water,298,-4.9405,mol/L
CCO[P](=O)(OCC)SCCSCC,water,298,-2.1112,mol/L
CC1(C)CC(=O)CC(=O)C1,water,298,-1.5276,mol/L
CCCC1OC1(CC)C(N)=O,water,298,-1.1745,mol/L
NC(=O)NO,water,298,1.1189,mol/L
CC(=O)C(O)=O,water,298,1.0552,mol/L
CC(=O)/C=C/C1C(=CCCC1(C)C)C,water,298,-3.2587,mol/L
CN1C(=O)OC(C)(C)C1=O,water,298,-0.4568,mol/L
Nc1ccc(cc1)[S](=O)(=O)NC(=O)c2ccccc2,water,298,-2.9501,mol/L
Cc1ccnc(N[S](=O)(=O)c2ccc(N)cc2)n1,water,298,-3.1168,mol/L
[Ag+].CC([O-])C(O)=O,water,298,-0.4702,mol/L
BrN1C(=O)CCC1=O,water,298,-1.0831,mol/L
ClN1C(=O)CCC1=O,water,298,-0.9702,mol/L
C[C@H](CCC(O)=O)[C@H]1CC[C@H]2[C@@H]3[C@@H](O)C[C@@H]4C[C@H](O)CC[C@]4(C)[C@H]3CC[C@]12C,water,298,-4.2929,mol/L
Cc1cc(c(O)c(c1)C(C)(C)C)C(C)(C)C,water,298,-5.565,mol/L
CC(C)(C)c1cccc(c1O)C(C)(C)C,water,298,-4.9166,mol/L
COc1ccc2[C@H](OC(=O)c2c1OC)[C@@H]3N(C)CCc4cc5OCOc5c(OC)c34,water,298,-3.1393,mol/L
Oc1cccc2C(=O)c3ccccc3C(=O)c12,water,298,-4.4213,mol/L
OC(=O)c1c(cc(cc1[N+]([O-])=O)[N+]([O-])=O)[N+]([O-])=O,water,298,-1.0977,mol/L
Oc1ccc(Cl)c2cccnc12,water,298,-3.9756,mol/L
Oc1c(cc(cc1[N+]([O-])=O)[N+]([O-])=O)C2CCCCC2,water,298,-4.2492,mol/L
OC(=O)c1cc(nc2ccccc12)c3ccccc3,water,298,-3.1926,mol/L
OC(=O)c1ccccc1C(=O)Nc2cccc3ccccc23,water,298,-3.1633,mol/L
Oc1cc(O)c2ccccc2c1,water,298,-1.9493,mol/L
ClC(Cl)(Cl)SN1C(=O)C2CC=CCC2C1=O,water,298,-4.7704,mol/L
ClC(Cl)(Cl)SN1C(=O)c2ccccc2C1=O,water,298,-5.569,mol/L
OC(=O)CCCc1c[nH]c2ccccc12,water,298,-2.9101,mol/L
OC(C(O)C(O)=O)C(O)=O,water,298,0.1561,mol/L
Cc1cc(O)c(Cl)c(C)c1Cl,water,298,-2.9801,mol/L
OC(=O)c1cc(I)cc(I)c1O,water,298,-3.307,mol/L
COC(=O)c1ccccc1N,water,298,-1.7246,mol/L
CC(=O)Oc1ccccc1C(=O)Oc2ccccc2,water,298,-4.1077,mol/L
N[S](=O)(=O)c1cc2c(NCN[S]2(=O)=O)cc1C(F)(F)F,water,298,-3.0431,mol/L
Nc1ccc(cc1)c2ccc(Cl)cc2,water,298,-4.6383,mol/L
N(N=Nc1ccccc1)c2ccccc2,water,298,-2.596,mol/L
CCOc1ccc(cc1N)[N+]([O-])=O,water,298,-3.2113,mol/L
Cc1cc(C)c(N)cc1C,water,298,-1.9549,mol/L
[Na+].CCC([O-])=O,water,298,0.7164,mol/L
[Na+].CNC([S-])=S,water,298,0.7473,mol/L
[H+].[Cl-].NC(CCC(O)=O)C(O)=O,water,298,0.3159,mol/L
CCCCOC(=O)C(C)O,water,298,-0.5629,mol/L