Solute,Solvent,Temperature_K,Solubility,Units
CCC1=NC2=CN=CN=C2N=C1CC,water,298,-0.12,mol/L
CC1=NN(C2=CC=CC=C2)C(N)=C1,water,298,-0.94,mol/L
CC1(C)OC(=O)C2=C1C=CC(C#N)=C2,water,298,-2.91,mol/L
CSC1=C2N=CC=NC2=NC=N1,water,298,-2.37,mol/L
COC1=CC2=C(C=CC(=O)O2)C=C1,water,298,-3.12,mol/L
C=CCC1=CC=C2C=NC=NC2=C1O,water,298,-3.62,mol/L
CCOS(=O)(=O)C1=CC=CC=C1,water,298,-2.13,mol/L
CNC(=O)OC1=CC=CC2=C1OC(C)(C)C2,water,298,-1.21,mol/L
CN(C)C1=NC=C2N=CC=NC2=N1,water,298,0.36,mol/L
CN(C)C1=NC2=NC=NC=C2N=C1,water,298,-0.02,mol/L
C1=CC2=C(C=C1)SC1=C(C=CC=C1)N2,water,298,-5.59,mol/L
O=C(O)CC1=CNC2=C1C=CC=C2,water,298,-2.04,mol/L
COC1=C(OC)C2=C(COC2=O)C(Br)=C1,water,298,-3.93,mol/L
CC1=NC=CC2=C1NC1=C2C=CC=C1,water,298,-3.79,mol/L
CC1=NN(C2=CC=CC=C2)C(N)=C1C,water,298,-1.67,mol/L
CCC1(CC)CCC(=O)NC1=O,water,298,-4.53,mol/L
CCOC(=O)C1=CNC(=S)N=C1,water,298,-1.74,mol/L
O=S1(=O)C2=C(C=CC=C2)C2=C1C=CC=C2,water,298,-4.57,mol/L
CCCC1=NC=NC2=C(O)C=CC=C12,water,298,-2.92,mol/L
C1=CC=C2C(=C1)C=CC(=N2)C[N+](=O)[O-],water,298,-2.06,mol/L
ON=C1C=CC(=NO)C2=C1C=CC=N2,water,298,-3.8,mol/L
CCCCCCNC(=O)C1=CN=CC=C1,water,298,-2.52,mol/L
CC1=CC=NC(NC(=O)C2=CN=CC=N2)=N1,water,298,-0.73,mol/L
CCC1(C)NC(=O)C(C)(CC)NC1=O,water,298,-1.92,mol/L
O=C1C=CC2=NC3=C(C=CC=C3)SC2=C1,water,298,-3.72,mol/L
O=C(NC1=CC=CC=N1)C1=CN=CC=C1,water,298,-2.98,mol/L
FC(F)(F)C1=NC2=C(C=NC=N2)N1,water,298,-0.45,mol/L
CC1=CC=C(C2=NC3=C(C=CC=C3)S2)C=C1,water,298,-4.35,mol/L
O=C1C=CC2=C(C=C3OC=CC3=C2)O1,water,298,-3.74,mol/L
CC1=C(O)C(=O)C=CN1C1=CC=CC=C1,water,298,-2.03,mol/L
CC1=CC=C(N2C=CC(=O)C(O)=C2C)C=C1,water,298,-3.22,mol/L
CC(C)NCC(O)COC1=C2C=CNC2=CC=C1,water,298,-3.93,mol/L
CCCCCCCNC(=O)C1=CN=CC=C1,water,298,-3.2,mol/L
C1=COC(C2=NC3=C(C=CC=C3)N2)=C1,water,298,-3.49,mol/L
CCOP(=S)(OCC)OC1=C(Cl)C=C(Cl)C(Cl)=N1,water,298,-5.4,mol/L
CC1=NC(=O)C(C(N)=O)C(=O)N1,water,298,-2.41,mol/L
COC1=C(C(=O)O)OC2=C1C=CC=C2,water,298,-2.88,mol/L
CC1=CC2=C(C=C1)NC(=O)C(=O)N2,water,298,-3.04,mol/L
O=C1NC(=O)C2=C(N1)NC(=O)N2,water,298,-3.62,mol/L
O=C1NC(=S)C2=C(N1)NC(=O)N2,water,298,-4.04,mol/L
O=C1CNC(=O)C2=C(C=CC=C2)N1,water,298,-2.85,mol/L
CN(C)C1=C2N=CC=NC2=NC=N1,water,298,-1.02,mol/L
CC(=O)NC1=CC2=C(C=C1)COC2=O,water,298,-2.6,mol/L
C1C2=C(C=C(C=C2)[N+](=O)[O-])C(=O)O1,water,298,-2.65,mol/L
O=C(NC1CCCCC1)C1=CN=CC=C1,water,298,-2.32,mol/L
CN1C2=C(C=CC=C2)C(=O)C2=C1C=CC=C2,water,298,-4.46,mol/L
COC1=CC=C2COC(=O)C2=C1OC,water,298,-1.88,mol/L
CCC1=NC2=CN=C(N)N=C2N=C1CC,water,298,-3.04,mol/L
CC(=O)CC(CC(=O)O)C1=CC=CC=C1,water,298,-1.44,mol/L
NC1=NC(=O)NN1C1=CC=CC=C1,water,298,-1.7,mol/L
CC=CCC1(CC=CC)C(=O)NC(=O)NC1=O,water,298,-2.2,mol/L
NC1=NC(=O)N(C2=CC=CC=C2)N1,water,298,-2.47,mol/L
O=C1C=C(C(=O)O)OC(C(=O)O)=C1,water,298,-1.1,mol/L
CC1=NC2=C(N=CN=C2)N(C)C1=O,water,298,-1.49,mol/L
CCC1(CC)C(=O)NC(=O)NC1=O,water,298,-2.4,mol/L
CCC1(CC)C(=O)NC(=S)NC1=O,water,298,-2.32,mol/L
O=C1CC(C(=O)O)CC2=C1C=CC=C2,water,298,-2.1,mol/L
O=C(C1=CC=CO1)N(O)C1=CC=CC=C1,water,298,-3.19,mol/L
CN1C=NC2=C1C(=O)NC(=O)N2C,water,298,-2.62,mol/L
CC1=CC(OC2=CC=CC=N2)=NN1C,water,298,-0.98,mol/L
NC1=NN=C(C2=CC=C(O)C=C2)O1,water,298,-0.77,mol/L
COC(=O)C1=CC2=CC3=C(OC(=O)C=C3C)C(C)=C2O1,water,298,-5.16,mol/L
CCCCCCCCNC(=O)C1=CN=CC=C1,water,298,-3.01,mol/L
CC12CC(C)(NC(=O)N1)NC(=O)N2,water,298,-2.09,mol/L
CCC1(CC)NC(=O)C(CC)(CC)NC1=O,water,298,-2.31,mol/L
CC1=C(CC(=O)O)C(=O)NC(=O)N1,water,298,-2.31,mol/L
O=C1C=NC2=C(N1)NC(=O)NC2=O,water,298,-3.34,mol/L
O=C(O)CC1=CNC(=O)NC1=O,water,298,-1.63,mol/L
CCCCCCCCNC(=O)C(C)O,water,298,-2.28,mol/L
CCN(CC)S(=O)N(CC)CC,water,298,-1.28,mol/L
CC(C)C(NCCC#N)C(=O)O,water,298,-1.12,mol/L
CCC(C)C(NCCC#N)C(=O)O,water,298,-0.98,mol/L
CC(C(=O)O)N(CCC#N)CCC#N,water,298,-0.17,mol/L
CCOP(=O)(OCC)SCCSCC,water,298,-2.11,mol/L
COP(=O)(OC)C(O)C(Cl)(Cl)Cl,water,298,-0.46,mol/L
CCOP(=S)(OCC)SCSC(C)(C)C,water,298,-4.28,mol/L
C(CCO[N+](=O)O)CO[N+](=O)O,water,298,-1.68,mol/L
CCCCOP(=O)(OCCCC)OCCCC,water,298,-2.85,mol/L
CC(CCO[N+](=O)O)O[N+](=O)O,water,298,-1.66,mol/L
NCC(=O)NCC(=O)NCC(=O)O,water,298,-0.53,mol/L
CC(CC(C)O[N+](=O)O)O[N+](=O)O,water,298,-2.22,mol/L
C(CCO[N+](=O)O)CCO[N+](=O)O,water,298,-2.19,mol/L
CC(C)CC(C(=O)O)N(CCC#N)CCC#N,water,298,-1.14,mol/L
CC(CCC(C)O[N+](=O)O)O[N+](=O)O,water,298,-2.68,mol/L
CSCCC(C(=O)O)N(CCC#N)CCC#N,water,298,-1.33,mol/L
CC(O)C(O)C(O)C(O)C=NNC(N)=O,water,298,-0.7,mol/L
NC(CSCCSCC(N)C(=O)O)C(=O)O,water,298,-2.85,mol/L
NC(CSCCCSCC(N)C(=O)O)C(=O)O,water,298,-2.49,mol/L
NC(CSCCCCSCC(N)C(=O)O)C(=O)O,water,298,-3.62,mol/L
NC(=O)NCC(=O)NCC(=O)NCC(=O)O,water,298,-1.35,mol/L
NC(CSCCCCCSCC(N)C(=O)O)C(=O)O,water,298,-2.91,mol/L
NC(CSCCCCCCSCC(N)C(=O)O)C(=O)O,water,298,-2.77,mol/L
NC1=C2NC(=O)N=C2NC(=O)N1,water,298,-3.46,mol/L
CCC1=NC2=NC=NC(N)=C2N=C1CC,water,298,-2.93,mol/L
CC(C)CC(NC(=O)C(C)NC(=O)CN)C(=O)NC(C(=O)O)C(C)C,water,298,-2.13,mol/L
COC1=CC2=C(N=CC=N2)C(N)=C1OC,water,298,-1.71,mol/L
CCCCCCOC(=O)C(C)O,water,298,-1.14,mol/L
CCCCCCCCOC(=O)C(C)O,water,298,-1.27,mol/L
CCCCC(NC(C)=O)C(=O)O,water,298,-0.68,mol/L
CCC(C)C(NC(C)=O)C(=O)O,water,298,-0.69,mol/L
CC(C(C)O[N+](=O)O)O[N+](=O)O,water,298,-1.89,mol/L
N=C(N)NCCCC(N)C(=O)O,water,298,0.05,mol/L
CCCCC(NC(N)=O)C(=O)O,water,298,-2.16,mol/L
CSCCC(NC(C)=O)C(=O)O,water,298,0.03,mol/L
O=S(CCCl)CCS(=O)CCCl,water,298,-2.04,mol/L
CC(SSC(C)C(=O)O)C(=O)O,water,298,-0.62,mol/L
CC(C)CC(NC(=O)CN)C(=O)O,water,298,-0.43,mol/L
CCC(SC(CC)C(=O)O)C(=O)O,water,298,-0.71,mol/L
CC(SCSC(C)C(=O)O)C(=O)O,water,298,-1.82,mol/L
CSC(CCC(SC)C(=O)O)C(=O)O,water,298,-2.89,mol/L
CC(C)C(N)C(=O)NC(C(=O)O)C(C)C,water,298,-0.4,mol/L
NC(CSCC(N)C(=O)O)C(=O)O,water,298,-2.56,mol/L
CC(C)CC(N)C(=O)NC(C(=O)O)C(C)C,water,298,-0.17,mol/L
CC(=O)NC(CCC(=O)O)C(=O)O,water,298,-0.71,mol/L
NC(=O)NN=CC(O)C(O)C(O)CO,water,298,0.02,mol/L
CCSC(=S)OC(CC(=O)O)C(=O)O,water,298,-1.29,mol/L
CCOC(=S)SC(CC(N)=O)C(=O)O,water,298,-1.7,mol/L
CCOC(=S)SC(CC(=O)O)C(=O)O,water,298,-1.19,mol/L
CC(CC(C)(C(=O)O)C(=O)O)C(=O)O,water,298,-0.1,mol/L
CCSC(CCC(SCC)C(=O)O)C(=O)O,water,298,-1.36,mol/L
CC(C)CC(N)C(=O)NC(CC(C)C)C(=O)O,water,298,-0.69,mol/L
NC(CCSSCCC(N)C(=O)O)C(=O)O,water,298,-3.12,mol/L
C=CCSC(CCC(SCC=C)C(=O)O)C(=O)O,water,298,-2.2,mol/L
CC(C)CC(N)C(=O)NCC(=O)NCC(=O)O,water,298,0.31,mol/L
CC(C)CC(Br)C(=O)NC(C)C(=O)NC(C)C(=O)O,water,298,-1.43,mol/L
CC(C)CC(NC(=O)CNC(=O)CN)C(=O)O,water,298,-0.11,mol/L
COC(OC(C)=O)C(OC(C)=O)C(OC(C)=O)C(COC(C)=O)OC(C)=O,water,298,-1.82,mol/L
CCCCCCCCCNC(=O)C1=CN=CC=C1,water,298,-3.14,mol/L
CCCCCCCCOCC(O)CO,water,298,-1.92,mol/L
C1=C(SC(=C1)[N+](=O)[O-])C(=O)NN,water,298,-1.97,mol/L
O=C(NC1=NC=CC=N1)C1=CN=CC=N1,water,298,-0.3,mol/L
CCCCCCNC(=O)C(C)O,water,298,-0.95,mol/L
NS(=O)(=O)C1=NC2=C(C=CC=C2)S1,water,298,-2.63,mol/L
OC(=S)CCCCCCC(O)=S,water,298,-2.24,mol/L
CCCCOP(=O)(CCCC)CCCC,water,298,-1.72,mol/L
CCCC(=O)NNC(=O)CCC,water,298,-1.0,mol/L
CCC(=O)NCCNC(=O)CC,water,298,0.38,mol/L
CCN(CC)S(=O)(=O)N(CC)CC,water,298,-1.14,mol/L
CCCCCCCCCCNC(=O)C(C)O,water,298,-3.36,mol/L
CCCCCCCCCCOC(=O)C(C)O,water,298,-3.06,mol/L
NC(=O)NCCCCCC(=O)O,water,298,-2.16,mol/L
OC(=S)CCCCCCCC(O)=S,water,298,-2.39,mol/L
C=CCC(C(=O)NC(N)=O)C(C)C,water,298,-2.75,mol/L
OC(=S)CCCCCCCCC(O)=S,water,298,-3.07,mol/L
O=C(NCCO)C(=O)NCCO,water,298,-0.11,mol/L
O=C(O)CCSSCCC(=O)O,water,298,-0.19,mol/L
N#CCCN(CCC#N)CC(=O)O,water,298,0.46,mol/L
CCCC(=O)NCCNC(=O)CCC,water,298,-0.62,mol/L
COC(=O)C(C#N)C(=O)CC(C)C,water,298,-2.73,mol/L
CCCCC(=O)NNC(=O)CCCC,water,298,-2.16,mol/L
CCOC(=O)CNC(C)=CC(C)=O,water,298,-0.59,mol/L
CC1(C)NC(=O)N(CC2=CC=CC=C2)C1=O,water,298,-1.8,mol/L
NC(=O)NCC(=O)NCC(=O)O,water,298,-0.9,mol/L
O=C(O)CNC(=S)SCC(=O)O,water,298,-1.3,mol/L
CCCCC(=O)NCCNC(=O)CCCC,water,298,-1.82,mol/L
COC(=O)CCCCCCCCC(=O)OC,water,298,-3.28,mol/L
CCCCOC(=O)NS(N)(=O)=O,water,298,-1.04,mol/L
CCC(CO[N+](=O)O)O[N+](=O)O,water,298,-1.89,mol/L
CCCCCCCCOC(=O)C(C)OC(C)=O,water,298,-3.39,mol/L
COC1=CC2=C(C=C1)C1=C(N2)C(C)=NC=C1,water,298,-4.48,mol/L
CCCC(C)(COC(N)=O)COC(N)=O,water,298,-1.74,mol/L
CCCCCC(=O)NCCNC(=O)CCCCC,water,298,-3.11,mol/L
CCC(CC)COC(=O)NS(N)(=O)=O,water,298,-1.75,mol/L
CC(C=NNC(N)=O)=NNC(N)=O,water,298,-1.95,mol/L
O=C(CCCCC(=O)NCCO)NCCO,water,298,0.41,mol/L
CCCCS(=O)(=O)NS(=O)(=O)CCCC,water,298,-0.76,mol/L
O=S(=O)(CCCl)CCS(=O)(=O)CCCl,water,298,-1.45,mol/L
CCCCC(CC)COC(=O)NS(N)(=O)=O,water,298,-2.4,mol/L
CC(O)C(=O)NCCCCCCNC(=O)C(C)O,water,298,-0.7,mol/L
C1C2(COP(=O)(O1)OC2)[N+](=O)[O-],water,298,-0.81,mol/L
COP(=S)(OC)SSP(=S)(OC)OC,water,298,-4.4,mol/L
O=C(O)CSC(SCC(=O)O)SCC(=O)O,water,298,-1.42,mol/L
CCCCOC(=O)CCCCCCCCC(=O)OCCCC,water,298,-3.6,mol/L
CCCCCCS(=O)(=O)NS(=O)(=O)CCCCCC,water,298,-2.2,mol/L
CC(=O)OC(OC(C)=O)C(OC(C)=O)OC(C)=O,water,298,-2.1,mol/L
O=C(NCCCCCCNC(=O)OCCO)OCCO,water,298,-0.92,mol/L
CCCCCCOC(=O)CCCCCCCCC(=O)OCCCCCC,water,298,-4.57,mol/L
CCCS(=O)(=O)C(S(=O)(=O)CCC)S(=O)(=O)CCC,water,298,-1.95,mol/L
CCCCC(CC)COC(=O)CCCCC(=O)OCC(CC)CCCC,water,298,-5.06,mol/L
CCCCCCCCS(=O)(=O)NS(=O)(=O)CCCCCCCC,water,298,-2.92,mol/L
CCOC(=O)CC(SP(=O)(OC)OC)C(=O)OCC,water,298,-3.34,mol/L
CCOC(=O)CC(SP(=S)(OC)OC)C(=O)OCC,water,298,-3.36,mol/L
CC(=O)OCC(COC(C)=O)(COC(C)=O)COC(C)=O,water,298,-1.57,mol/L
O=C(NCCCCCCNC(=O)OCCCCO)OCCCCO,water,298,-1.93,mol/L
CCCCS(=O)(=O)C(S(=O)(=O)CCCC)S(=O)(=O)CCCC,water,298,-2.97,mol/L
C=CCC1(C(C)C)C(=O)NC(=O)NC1=O,water,298,-1.71,mol/L
O=C(O)CSSSSCC(=O)O,water,298,-1.45,mol/L
NC1=NC2=C(N=CC(=O)N2)C(=O)N1,water,298,-4.55,mol/L
CC1=NC2=C(N=CNC2=O)NC1=O,water,298,-2.15,mol/L
CC1(C2=C(C=C(C=C2)[N+](=O)[O-])C(=O)O1)C,water,298,-3.05,mol/L
O=C(O)C1=CC(N=NC2=CC=C(O)C=C2)=C(Cl)C=C1,water,298,-4.08,mol/L
CC(=NNC(=O)C1=NC=CS1)C(=O)O,water,298,-1.93,mol/L
O=C1NC2=C(NC1=O)C(=O)NC=N2,water,298,-3.69,mol/L
O=C1C=NC2=C(N1)C(=O)NC(=O)N2,water,298,-3.13,mol/L
OC1=C(C2=NCCN2)C=C2C=CC=CC2=C1,water,298,-3.3,mol/L
N#CC(C#N)=NNC1=CC=CC=C1,water,298,-0.36,mol/L
O=C(O)C1=CC=CC(N=NC2=CC=C(O)C=C2)=C1,water,298,-3.85,mol/L
O=C(O)C1=C(N=NC2=CC=C(O)C=C2)C=CC=C1,water,298,-3.33,mol/L
CCCCCCCCN(C)N=NC1=CC=C(C(=O)O)C=C1,water,298,-3.77,mol/L
O=C(O)C1=C(N=NC2=CC=C(O)C=C2)C=CC(Cl)=C1,water,298,-3.86,mol/L
CCC1=NC2=C(N=C1CC)NC(=O)N=C2,water,298,-2.26,mol/L
CC(=NNC(=O)C1=CC=NC=C1)C(=O)O,water,298,-3.31,mol/L
CN1C(=O)NC2=C1NC(=O)NC2=O,water,298,-3.94,mol/L
COC1=C(OC)C2=C(COC2=O)C(N)=C1,water,298,-2.08,mol/L
O=C(C1=CC=CC=C1)C(F)(F)F,water,298,-1.16,mol/L
CC1=NC2=C(C=CC(=C2C=C1)[N+](=O)[O-])O,water,298,-3.96,mol/L
C1=CC=C2C(=C1)C=CC=C2[N+](=O)[O-],water,298,-3.71,mol/L
CCOC1=CC=C(NC(C)=O)C=C1,water,298,-2.33,mol/L
CC1=C(C(=O)CCl)C=C(C(C)C)C(O)=C1,water,298,-2.58,mol/L
CCOC1=NC(OCC)=NC(OCC)=N1,water,298,-1.48,mol/L
CCCCCCCCCCNC(=O)C1=CN=CC=C1,water,298,-3.08,mol/L
CNC(=O)OC1=C2C=CC=CC2=CC=C1,water,298,-3.76,mol/L
OC1=C(Cl)C(Cl)=C(Cl)C(Cl)=C1O,water,298,-3.55,mol/L
COC1=CC=C(C2=CC=CC=C21)[N+](=O)[O-],water,298,-4.36,mol/L
C(CCCO[N+](=O)O)CCCO[N+](=O)O,water,298,-3.4,mol/L
C1C2=CC=CC=C2C3=C1C=C(C=C3)[N+](=O)[O-],water,298,-4.72,mol/L
COC1=C(Cl)C(Cl)=C(Cl)C(Cl)=C1O,water,298,-4.02,mol/L
C(CCCCO[N+](=O)O)CCCO[N+](=O)O,water,298,-4.14,mol/L
COC1=C(OC)C(Cl)=C(Cl)C(Cl)=C1Cl,water,298,-5.24,mol/L
CC1=CN(CC2=CC=CC=C2)C(=O)NC1=O,water,298,-2.26,mol/L
C=CCOC(=O)C1=C(C(=O)OCC=C)C=CC=C1,water,298,-3.76,mol/L
CNC(=O)OC1=CC(C)=C(SC)C(C)=C1,water,298,-3.92,mol/L
C1=CC2=C(C=CC(=C2N=C1)C(=O)O)[N+](=O)[O-],water,298,-3.16,mol/L
CCCCCCOC(=O)C1=C(C(=O)OCCCCCC)C=CC=C1,water,298,-5.81,mol/L
CC1=C(C=CC(=C1)OP(=S)(OC)OC)[N+](=O)[O-],water,298,-4.3,mol/L
CCCCC(CC)COC(=O)C1=C(C(=O)OCC(CC)CCCC)C=CC=C1,water,298,-7.36,mol/L
COP(=O)(OC)OC(=CCl)C1=C(Cl)C=C(Cl)C(Cl)=C1,water,298,-4.52,mol/L
CCOC(=O)N1CC(C)N(C(N)=O)CC1C,water,298,-0.55,mol/L
C1=CC=C(C=C1)OP(=O)(OC2=CC=CC=C2)OC3=CC=C(C=C3)[N+](=O)[O-],water,298,-4.96,mol/L
O=C1C=CC2=C(O1)C(O)=C1OC=CC1=C2,water,298,-3.22,mol/L
O=C1OC(C2=CC=C(Br)C=C2)C(Br)C1=O,water,298,-3.05,mol/L
O=C1NC(=S)SC1=CC1=CC(O)=C(O)C=C1,water,298,-3.34,mol/L
O=C1CCCCCN1C(=O)C1=CC=CC=C1,water,298,-2.17,mol/L
C1=CC=C(C(=C1)C(=O)O)[N+](=O)[O-],water,298,-1.47,mol/L
COC(=O)C1=CC=C(C(=O)O)C=C1,water,298,-2.97,mol/L
COC(=O)C1=C(C(=O)OC)C=CC=C1,water,298,-1.95,mol/L
C(CCCO[N+](=O)O)CCO[N+](=O)O,water,298,-2.77,mol/L
COC(=O)C1=CC=C(C=C1)[N+](=O)[O-],water,298,-3.04,mol/L
CCOC(=O)C1=C(C(=O)OCC)C=CC=C1,water,298,-2.38,mol/L
CCCCOC(=O)C1=C(C(=O)OCCCC)C=CC=C1,water,298,-4.28,mol/L
CC=CCC1(C)C(=O)NC(=O)N(C)C1=O,water,298,-1.55,mol/L
CC12CCC3C4=C(C=C(O)C=C4)CCC3C1CCC2=O,water,298,-5.11,mol/L
CC12CCC(=O)C=C1CCC1C2CCC2(C)C(O)CCC12,water,298,-4.12,mol/L
CCOP(=O)(OCC)OC1=CC=C(C=C1)[N+](=O)[O-],water,298,-2.06,mol/L
CC(=O)C1CCC2C3CCC4=CC(=O)CCC4(C)C3CCC12C,water,298,-4.42,mol/L
NNC(=O)C1=CC2=C(C=C1)OCO2,water,298,-0.6,mol/L
CC1C2=C(C=C(C=C2)[N+](=O)[O-])C(=O)O1,water,298,-2.62,mol/L
NC1=NC2=C(NC(=O)C=N2)C(=O)N1,water,298,-3.86,mol/L
NC(CC1=NNC2=C1C=CC=C2)C(=O)O,water,298,-1.41,mol/L
CCN(CC)C1=CC2=C(C=C1)C(C)=CC(=O)O2,water,298,-4.0,mol/L
NC1=C2C=CC=NC2=C(S(=O)(=O)O)C=C1,water,298,-2.71,mol/L
NC1=C(S(=O)(=O)O)C=CC2=C1C=CC=N2,water,298,-2.5,mol/L
COC1=CC=C(Cl)C(OC)=C1O,water,298,-1.56,mol/L
CC1=C(C2=CC=CC=C2C=C1)[N+](=O)[O-],water,298,-4.27,mol/L
CCC1(CCO)C(=O)NC(=S)NC1=O,water,298,-1.47,mol/L
COC1=C2C=COC2=CC2=C1C=CC(=O)O2,water,298,-3.6,mol/L
NC1=CC=C(S(=O)(=O)N=C2CC=CN2)C=C1,water,298,-1.69,mol/L
COC1=C2OC=CC2=CC2=C1OC(=O)C=C2,water,298,-3.52,mol/L
CC1=CC(=O)N(O)C2=C1C1=C(C=CC=C1)C=C2,water,298,-4.0,mol/L
C1=CC=C(C=C1)C2=CC(=C(C=C2)[N+](=O)[O-])O,water,298,-3.86,mol/L
CCN(CC)C(=O)SCC1=CC=C(Cl)C=C1,water,298,-3.93,mol/L
O=C(O)CSC(=S)OCC1=CC=CC=C1,water,298,-2.68,mol/L
O=S(=O)(C1=C(O)C=CC=C1)C1=C(O)C=CC=C1,water,298,-3.32,mol/L
CCCCCCCCC(CO[N+](=O)O)O[N+](=O)O,water,298,-5.72,mol/L
O=C(C1=CC=CC=C1)N(O)C1=CC=CC2=C1C=CC=C2,water,298,-3.31,mol/L
CCCC1(CCC)C(=O)NC(=O)NC1=O,water,298,-2.53,mol/L
CC1=NC(=O)C2=C(N1)C=CC(=C2)[N+](=O)[O-],water,298,-2.22,mol/L
CCCCCOC(=O)C1=C(C(=O)OCCCCC)C=CC=C1,water,298,-3.49,mol/L
CCC1C2=C(C=C(C=C2)[N+](=O)[O-])C(=O)O1,water,298,-2.55,mol/L
NC(=O)CNC(=O)CNC(=O)OCC1=CC=CC=C1,water,298,-2.35,mol/L
CCC(=O)C(CCCCCCOC1=C(Cl)C=C(OC)C=C1)C(=O)CC,water,298,-5.27,mol/L
CCCCC1(CC)C(=O)NC(=O)NC1=O,water,298,-1.67,mol/L
CC1(C2=CC=CC=C2)C(=O)NC(=O)NC1=O,water,298,-2.46,mol/L
C=CCC1(CC(C)C)C(=O)NC(=O)NC1=O,water,298,-2.12,mol/L
CCOC1=C2N=CC=CC2=C(NC(C)=O)C=C1,water,298,-1.52,mol/L
CC(=O)C1=C(C(=O)O)C(C(=O)O)=CN=C1C,water,298,-1.35,mol/L
CC(CCC(=O)O)=NNC(=O)C1=NC=CS1,water,298,-1.73,mol/L
CCC1=NC2=C(N=C1CC)C(=O)NC(=O)N2,water,298,-2.38,mol/L
CC1=C(C(C)C)C(=O)N(C2=CC=CC=C2)N1C,water,298,-1.91,mol/L
C1=CC=C2C=C(C=CC2=C1)[N+](=O)[O-],water,298,-3.82,mol/L
CC(=NO)C(=NO)C1=CC=CC=C1,water,298,-2.3,mol/L
COC1=C(OCC(O)CO)C=CC=C1,water,298,-0.73,mol/L
OCCOC1=CC=CC(OCCO)=C1,water,298,-1.02,mol/L
C1=CC(=C(C=C1C(=O)O)[N+](=O)[O-])Br,water,298,-2.97,mol/L
CC(=O)CC(C)=NCCN=C(C)CC(C)=O,water,298,-2.83,mol/L
C1=CC(=CC=C1C(=O)NO)[N+](=O)[O-],water,298,-1.94,mol/L
CN(C(=O)C1=CC=C(C=C1)[N+](=O)[O-])O,water,298,-2.87,mol/L
COC1=CC=C(C=CC(=O)C2=C(O)C=CC=C2)C=C1,water,298,-5.7,mol/L
CONC(=O)C1=CC=C(C=C1)[N+](=O)[O-],water,298,-2.28,mol/L
CC1=CC(C)=NC(OC2=NN(C)C(C)=C2)=N1,water,298,-1.52,mol/L
NC(=O)CNC(=O)OCC1=CC=CC=C1,water,298,-1.88,mol/L
CC(C)COC(=O)C1=C(C(=O)OCC(C)C)C=CC=C1,water,298,-4.74,mol/L
COC1=CC2=C(C=C1)NC=C2CCNC(C)=O,water,298,-5.09,mol/L
O=C(O)COC1=C(Cl)C=C(Cl)C(Cl)=C1,water,298,-2.96,mol/L
COC1=CC=C(C(C2=CC=C(OC)C=C2)C(Cl)(Cl)Cl)C=C1,water,298,-6.54,mol/L
CCOP(=S)(OCC)OC1=CC=C(C=C1)[N+](=O)[O-],water,298,-4.08,mol/L
CC12CCC3(O)C(CCC4=CC(=O)CCC43C)C1CCC2=O,water,298,-2.68,mol/L
CCCCOC(=O)C1=C(C(=O)OCC2=CC=CC=C2)C=CC=C1,water,298,-5.67,mol/L
CC(CCC(=O)O)=NNC(=O)C1=CC=NC=C1,water,298,-1.59,mol/L
CC(=O)NC1=C(C)C=C(Cl)C=C1,water,298,-2.31,mol/L
O=C(O)C1=CC=C(NC(=O)C2=CN=CC=C2)C=C1,water,298,-3.08,mol/L
O=C(NC(=O)C1=CN=CC=C1)NC1=CC=CC=C1,water,298,-3.38,mol/L
C=CCC1(CCCC)C(=O)NC(=O)NC1=O,water,298,-2.17,mol/L
CCC=C(C)C1(CC)C(=O)NC(=O)NC1=O,water,298,-2.31,mol/L
CC(C)CC1(CCO)C(=O)NC(=S)NC1=O,water,298,-2.62,mol/L
CCC1(CC(C)=O)C(=O)NC(=O)NC1=O,water,298,-0.77,mol/L
CCCOC1=C(C=C(C=C1)[N+](=O)[O-])N,water,298,-3.16,mol/L
O=S(=O)(C1CCCCC1)C1CCCCC1,water,298,-2.06,mol/L
CCCC1(CCO)C(=O)NC(=S)NC1=O,water,298,-1.61,mol/L
COC1=CC=C2C=C(CCC(C)=O)C=CC2=C1,water,298,-1.46,mol/L
CC(C)(NC(=O)C1=CC=CC=C1)C(=O)O,water,298,-0.76,mol/L
C1=CC(=C(C=C1C(=O)O)[N+](=O)[O-])F,water,298,-1.58,mol/L
COC1=C(OC)C2=C(COC2=O)C(C#N)=C1,water,298,-3.48,mol/L
COC1=C(C(=O)O)C=C(C(=O)O)C=C1,water,298,-3.11,mol/L
COC1=C(C(=O)O)C=CC(C(=O)O)=C1,water,298,-1.99,mol/L
O=C(O)C(=O)C(C1=CC=CC=C1)C1=CC=CC=C1,water,298,-2.33,mol/L
CCC1(CCC(C)C)C(=O)NC(=O)NC1=O,water,298,-2.66,mol/L
O=C(O)CCC(=O)C1=C2C=CC=CC2=CC=C1,water,298,-3.48,mol/L
C1=CC=C(C(=C1)[N+](=O)[O-])OCC(=O)O,water,298,-2.01,mol/L
NC1=CC=C(S(=O)(=O)C2=CC=C(Cl)C=C2)C=C1,water,298,-4.13,mol/L
O=C(O)C1=C(C(=O)C2=CC=C(O)C=C2)C=CC=C1,water,298,-2.73,mol/L
NC(=O)NS(=O)(=O)C1=CC=C(N)C=C1,water,298,-1.97,mol/L
CCOC(=O)C(C)(C)NC(=O)C1=CC=CC=C1,water,298,-1.19,mol/L
CCOC(=O)OC1=CC=C(NC(C)=O)C=C1,water,298,-2.67,mol/L
CC1(C(=O)O)NCCC2=C1C=C(O)C(O)=C2,water,298,-0.75,mol/L
CCC(C)(C(=O)O)N1C(=O)C2=C(C=CC=C2)C1=O,water,298,-1.91,mol/L
CCOC1=CC2=C(C=C1)N=C(S(N)(=O)=O)S2,water,298,-4.4,mol/L
O=C(C1=C(I)C=CC=C1)N(O)C1=CC=CC=C1,water,298,-3.53,mol/L
NS(=O)(=O)C1=CC=C(S(N)(=O)=O)C=C1,water,298,-2.53,mol/L
COC1=CC=C(C(O)C(O)C2=CC=CC=C2)C=C1,water,298,-1.39,mol/L
CC(=O)NC(COC(=O)C1=CC=CC=C1)C(=O)O,water,298,-3.22,mol/L
NC(CC1=CC=C(O)C=C1)C(=O)NCC(=O)O,water,298,-1.1,mol/L
COC1=CC=C(CC2NC(=O)N(C)C2=O)C=C1,water,298,-0.89,mol/L
O=C(O)C(OC1=C(Cl)C=CC=C1)OC1=C(Cl)C=CC=C1,water,298,-2.83,mol/L
COC1=C(C=CC(=C1)OC2=C(C=C(C=C2)Cl)Cl)[N+](=O)[O-],water,298,-5.91,mol/L
CCOC(=O)N1CCN(C(=O)OCC)CC1,water,298,-0.73,mol/L
CCNC(=S)N1CCN(C(=O)OCC)CC1,water,298,-1.79,mol/L
O=C(NC(=O)C1=C(F)C=CC=C1F)NC1=CC=C(Cl)C=C1,water,298,-6.54,mol/L
CNC(=S)NC1C(=O)NC(=O)NC1=O,water,298,-0.46,mol/L
CC(C)CC(NC(=O)OCC1C2=C(C=CC=C2)C2=C1C=CC=C2)C(=O)O,water,298,-3.74,mol/L
CC(=O)NS(=O)(=O)C1=CC=C(NC(=O)C2=C(C(=O)O)C=CC=C2)C=C1,water,298,-2.52,mol/L
CCC1(C2=C(C=C(C=C2)[N+](=O)[O-])C(=O)O1)CC,water,298,-3.66,mol/L
COC(=O)C1=CC=C(OC)C=C1,water,298,-2.42,mol/L
CCCCC(CCCC)(CCCC)C(=O)NO,water,298,-4.16,mol/L
COC(=O)C1=CC=C(N(C)C)C=C1,water,298,-3.05,mol/L
COC1=CC=CC(C(=O)O)=C1OC,water,298,-2.14,mol/L
NS(=O)(=O)C1=CC=C(NO)C=C1,water,298,-0.84,mol/L
O=S(=O)(O)C1=CC2=C(C=C1)OC1=C2C=CC=C1,water,298,-0.47,mol/L
O=C(C1=CC=CC=C1)N(O)C1=CC=CC=C1,water,298,-2.73,mol/L
CC(=O)NC(CC1=CC=CC=C1)C(=O)O,water,298,-1.41,mol/L
CC(C)C1=CC=C(NC(=O)N(C)C)C=C1,water,298,-3.5,mol/L
O=C(O)C1=CC(C(=O)O)=C(C(=O)O)C=C1,water,298,-0.4,mol/L
CN(C)C(=O)NC1=CC(Cl)=C(Cl)C=C1,water,298,-0.74,mol/L
NC(CC1=CC(O)=C(O)C=C1)C(=O)O,water,298,-1.47,mol/L
CCOC(=O)C(CC1=CC=CC=C1)NC(C)=O,water,298,-1.86,mol/L
CCN(CC)CC(=O)NC1=C(C)C=CC=C1C,water,298,-1.78,mol/L
CC(C(=O)O)C1=CC=CC(C(=O)C2=CC=CC=C2)=C1,water,298,-3.47,mol/L
CC1=CC2=CC3=C(OC(=O)C=C3C)C(C)=C2O1,water,298,-5.28,mol/L
CCN(CC)C(=O)C(C)OC1=C2C=CC=CC2=CC=C1,water,298,-3.57,mol/L
NC1=CC=C(S(=O)(=O)NC2=CC=CC=N2)C=C1,water,298,-2.97,mol/L
CCOC(=O)C(CC1=CC=C(O)C=C1)NC(=O)C1=CC=CC=C1,water,298,-3.33,mol/L
CC1=CC=C(S(=O)(=O)NC(CCC(=O)O)C(=O)O)C=C1,water,298,-0.93,mol/L
C1=CC(=CC=C1C(C(CO)NC(=O)C(Cl)Cl)O)[N+](=O)[O-],water,298,-1.91,mol/L
CCN(CC)C(=O)CN1C=C(Br)C(=O)C(Br)=C1,water,298,-2.31,mol/L
CCN(CC)C(=O)CN1C=C(I)C(=O)C(I)=C1,water,298,-3.18,mol/L
O=S(=O)(O)C1=C2C=CC=NC2=C(O)C(I)=C1,water,298,-2.2,mol/L
C=CCC1(C(C)CCC)C(=O)NC(=O)NC1=O,water,298,-2.36,mol/L
CCCCC(CC)CC(CC)(CC)C(=O)NO,water,298,-3.35,mol/L
CCCCCCCCC(CC)(CC)C(=O)NO,water,298,-5.22,mol/L
CC(C)CC(CC(C)C)(CC(C)C)C(=O)NO,water,298,-4.0,mol/L
CCCCCCC(CCC)(CCC)C(=O)NO,water,298,-2.82,mol/L
CCCCCCCCCCC(C)(C)C(=O)NO,water,298,-4.8,mol/L
O=C(OCCO)C1=C(O)C=CC=C1,water,298,-1.16,mol/L
COC1=C(O)C=CC(C(=O)CO)=C1,water,298,-1.78,mol/L
CCCCC1(CCO)C(=O)NC(=S)NC1=O,water,298,-2.17,mol/L
CC1=CC(NS(=O)(=O)C2=CC=C(N)C=C2)=NO1,water,298,-2.93,mol/L
O=C(O)CC1(O)CC(=O)N(C2=CC=CC=C2)C1=O,water,298,-0.68,mol/L
CCC(CC)(CC1=CC=C(C)C=C1)C(=O)NO,water,298,-3.35,mol/L
CN(C)C(=O)C1=CC=CC(C(=O)N(C)C)=C1,water,298,0.49,mol/L
O=C(NC(CO)C(=O)O)C1=CC=CC=C1,water,298,-0.91,mol/L
O=C(O)C1=C(C(=O)C2=CC=C(Br)C=C2)C=CC=C1,water,298,-3.01,mol/L
O=C1NC=C(NS(=O)(=O)O)C(=O)N1,water,298,-1.77,mol/L