Solute,Solvent,Temperature_K,Solubility,Units
c1cc2OC(=O)C=Cc2cc1,water,298,-1.89,mol/L
CCc2nnc(NS(=O)(=O)c1ccc(N)cc1)s2,water,298,-1.94,mol/L
O(c(c(O)ccc1CC=C)c1)C,water,298,-1.56,mol/L
c1ccccc1C2(CC=C)C(=O)NC(=O)NC2=O,water,298,-2.18,mol/L
CN4CCN(CCCN2c1ccccc1Sc3ccc(cc23)C(F)(F)F)CC4,water,298,-4.52,mol/L
c1cc(N)ccc1S(=O)(=O)Nc2nc(OC)nc(OC)c2,water,298,-2.96,mol/L
CCCCC1C(=O)N(N(C1=O)c2ccc(O)cc2)c3ccccc3,water,298,-3.73,mol/L
O=S(=O)(N)c(c(cc(NC(NS1(=O)=O)C(Cl)Cl)c12)Cl)c2,water,298,-2.68,mol/L
O=C(Nc(c(ccc1)C)c1C)CN(CC)CC,water,298,-1.76,mol/L
O=C(NS(=O)(=O)c(ccc(N)c1)c1)C,water,298,-1.23,mol/L
OCC(O)C(O)CO,water,298,0.7,mol/L
OC(c(cccc1)c1)C(NC)C,water,298,-0.42,mol/L
O=C(NCCCC)NS(=O)(=O)c(ccc(N)c1)c1,water,298,-2.18,mol/L
CCN(CC)CCNC(=O)c1cc(Cl)c(N)cc1OC,water,298,-3.18,mol/L
Cc1ncc(N(=O)=O)n1CCO,water,298,-1.26,mol/L
CCOc2ccc1nc(sc1c2)S(N)(=O)=O,water,298,-3.81,mol/L
Oc1cc(O)c2C(=O)CC(c3cc(O)c(O)cc3)Oc2c1,water,298,-3.62,mol/L
c1cc(N)ccc1S(=O)(=O)Nc2ncc(C)cn2,water,298,-2.82,mol/L
c1cc(N)ccc1S(=O)(=O)Nc2ncc(OC)cn2,water,298,-2.58,mol/L
c1cc(C)ccc1S(=O)(=O)NC(=O)NC2CCCCC2,water,298,-4.21,mol/L
COc2cc(Cc1cnc(N)nc1N)cc(OC)c2OC,water,298,-2.86,mol/L
OC3N=C(c1ccccc1Cl)c2cc(Cl)ccc2NC3=O,water,298,-3.6,mol/L
Cc1ccc(cc1)S(=O)(=O)NC(=O)NN2CCCCCC2,water,298,-3.68,mol/L
n(c(ccc1)C(Cl)(Cl)Cl)c1Cl,water,298,-3.76,mol/L
CN(C)C(=O)Nc1cccc(OC(=O)NC(C)(C)C)c1,water,298,-2.93,mol/L
c1ccccc1c2c(F)cc(C(C)C(=O)O)cc2,water,298,-4.49,mol/L
CCOP(=S)(OCC)N2C(=O)c1ccccc1C2=O,water,298,-3.35,mol/L
CC1=C(SCCO1)C(=O)Nc2ccccc2,water,298,-3.14,mol/L
CN(C)C=Nc1ccc(Cl)cc1C,water,298,-2.86,mol/L
o1c(N(=O)(=O))ccc1C=NO,water,298,-2.19,mol/L
CNC(=O)Oc1ccccc1C2OCCO2,water,298,-1.57,mol/L
O=C(O)C(c(ccc(c1)CC(C)C)c1)C,water,298,-3.99,mol/L
COc2ccc1cc(ccc1c2)C(C)C(O)=O,water,298,-4.16,mol/L
c1ccccc1CNC(=O)CN2C(N(=O)=O)=NC=C2,water,298,-2.81,mol/L
c1ccccc1c2ccc(C(=O)CCC(=O)O)cc2,water,298,-5.06,mol/L
C1CCCCN1c2nc(N)n(=O)c(N)c2,water,298,-1.98,mol/L
n1c(N)nc(N)c(Cc2cc(OC)c(OCCOC)c(OC)c2)c1,water,298,-2.1,mol/L
C1CN(CCC2=CC=CS2)CCC1(COC)N(C(=O)CC)c3ccccc3,water,298,-3.71,mol/L
n1cncn1CC(O)(c2ccc(F)cc2)c3ccccc3F,water,298,-3.37,mol/L
N1C(=O)NC(=O)C(F)=C1,water,298,-1.07,mol/L
CNN,water,298,1.34,mol/L
C1=C(C)C(=O)NC(=O)N1,water,298,-1.52,mol/L
C1=CC(=O)NC(=O)N1,water,298,-1.48,mol/L
CCC1(CCC(=O)NC1=O)c2ccccc2,water,298,-2.34,mol/L
O=NN(CCCC1)C1,water,298,-0.17,mol/L
N(=Nc(cccc1)c1)c(cccc2)c2,water,298,-4.45,mol/L
O(CCN(C1)C)C1,water,298,1.0,mol/L
N(CCCC1)C1,water,298,1.07,mol/L
O(CCNC1)C1,water,298,1.06,mol/L
N(CCC1)C1,water,298,1.15,mol/L
NC(=NC(#N))N,water,298,-0.31,mol/L
C1=CC(=O)NC(=O)N1C,water,298,-0.8,mol/L
O=C(NCC1)C1,water,298,1.07,mol/L
N(CCCC1)(C1)C,water,298,0.23,mol/L
CN1C(=O)C=CC=C1,water,298,0.96,mol/L
C=CC#N,water,298,0.15,mol/L
c1ccccc1C#N,water,298,-1.0,mol/L
N#Cc(c(C#N)ccc1)c1,water,298,-2.38,mol/L
N(Nc(cccc1)c1)c(cccc2)c2,water,298,-2.92,mol/L
Oc(ccc(N)c1)c1,water,298,-0.8,mol/L
c1cccc(N)c1C(=O)O,water,298,-1.52,mol/L
O=C(O)c(ccc(N)c1)c1,water,298,-0.4,mol/L
O=C(OC)N,water,298,0.97,mol/L
O=C(OCCCC)N,water,298,-0.66,mol/L
O=C(OCC(C)C)N,water,298,-0.3,mol/L
O=C(OC(C)(C)C)N,water,298,0.1,mol/L
O=C(OCc1ccccc1)N,water,298,-0.35,mol/L
NC(=O)N,water,298,0.96,mol/L
O=C(N)NO,water,298,1.12,mol/L
O=C(N)N(C)N=O,water,298,-0.85,mol/L
O=C(N)N(CC)N=O,water,298,-0.96,mol/L
O=C(N(C)C)N(C)C,water,298,0.94,mol/L
NC(=O)NCc1ccccc1,water,298,-0.95,mol/L
CC(=O)N,water,298,1.58,mol/L
CC(=O)N(C)C,water,298,1.11,mol/L
O=C(N)c(cccc1)c1,water,298,-0.96,mol/L
O=C(N)c(c(ccc1)C(=O)N)c1,water,298,-2.92,mol/L
O=C(Nc(cccc1)c1)C,water,298,-1.33,mol/L
O=C(N(C)C)Nc(cccc1)c1,water,298,-1.6,mol/L
CNC(=O)Oc1ccccc1OC(C)C,water,298,-2.05,mol/L
C1=CC2C(N(C)C5)Cc3ccc(O)c4c3C2(C5)C(O4)C1O,water,298,-3.28,mol/L
COc1ccc2CC5C3C=CC(O)C4Oc1c2C34CCN5C,water,298,-1.52,mol/L
CCCN(=O)=O,water,298,-0.8,mol/L
O=N(=O)c(cccc1)c1,water,298,-1.8,mol/L
O=N(=O)c(c(ccc1)C)c1,water,298,-2.33,mol/L
O=N(=O)c(cccc1C)c1,water,298,-2.44,mol/L
O=N(=O)c(ccc(c1)C)c1,water,298,-2.49,mol/L
O=N(=O)c(ccc(O)c1)c1,water,298,-0.74,mol/L
O=N(=O)c(c(O)ccc1)c1,water,298,-1.74,mol/L
O=N(=O)c(cccc1O)c1,water,298,-1.01,mol/L
O=N(=O)c(cc(N(=O)=O)c(O)c1C(CC)C)c1,water,298,-3.38,mol/L
O=C(O)c(cccc1N(=O)=O)c1,water,298,-1.68,mol/L
O=N(=O)c(c(OC)ccc1)c1,water,298,-1.96,mol/L
O=N(=O)c(ccc(OC)c1)c1,water,298,-2.41,mol/L
O=N(=O)c(cccc1N)c1,water,298,-2.19,mol/L
O=N(=O)c(ccc(N)c1)c1,water,298,-2.37,mol/L
NC(=N)NCC(=O)O,water,298,-1.51,mol/L
Nc(ccc(c1)Cl)c1,water,298,-1.66,mol/L
Nc(c(ccc1)Cl)c1,water,298,-1.52,mol/L
Nc(ccc(c1Cl)Cl)c1,water,298,-3.24,mol/L
FC(F)(F)c(cccc1N)c1,water,298,-1.47,mol/L
Nc(c(cc(c(ccc(N)c1Cl)c1)c2)Cl)c2,water,298,-4.92,mol/L
Clc1cccc(Cl)c1C#N,water,298,-4.24,mol/L
n(c(nc(n1)NCC)NCC)c1Cl,water,298,-4.55,mol/L
n(c(nc(n1)N(CC)CC)NCC)c1Cl,water,298,-4.06,mol/L
CCNc1nc(Cl)nc(NC(C)(C)C#N)n1,water,298,-3.15,mol/L
CC(C)Nc1nc(Cl)nc(NC(C)C)n1,water,298,-4.43,mol/L
O=C(N(OC)C)Nc(ccc(c1)Cl)c1,water,298,-2.57,mol/L
O=C(N(C)C)Nc(ccc(c1)Cl)c1,water,298,-2.89,mol/L
O=C(N(OC)C)Nc(ccc(c1Cl)Cl)c1,water,298,-3.52,mol/L
O=C(N(C)C)Nc(cccc1C(F)(F)F)c1,water,298,-3.43,mol/L
CC(C)N(C(=O)CCl)c1ccccc1,water,298,-2.48,mol/L
CCCCN(C)C(=O)Nc1ccc(Cl)c(Cl)c1,water,298,-4.77,mol/L
CC1=C(Cl)C(=O)N(C(C)(C)C)C(=O)N1,water,298,-2.48,mol/L
CN(C)C(=O)Nc2ccc(Oc1ccc(Cl)cc1)cc2,water,298,-4.89,mol/L
O=N(=O)c(ccc(Oc(c(cc(c1)Cl)Cl)c1)c2)c2,water,298,-5.46,mol/L
CCCN(CCC)c1c(cc(cc1N(=O)=O)C(F)(F)F)N(=O)=O,water,298,-5.68,mol/L
CC(C)(C)C(=O)C(Oc1ccc(Cl)cc1)n2cncn2,water,298,-3.61,mol/L
CCCCS,water,298,-2.18,mol/L
c1ccccc1S,water,298,-2.12,mol/L
CCNc1nc(NC(C)C)nc(SC)n1,water,298,-3.04,mol/L
CCNc1nc(NC(C)(C)C)nc(SC)n1,water,298,-4.0,mol/L
N(C(=S)NC1)C1,water,298,-0.71,mol/L
NC(=S)Nc(cccc1)c1,water,298,-1.77,mol/L
n(ccc(n1)O)c1S,water,298,-2.26,mol/L
O=C(NS(=O)(=O)c1cccc2)c12,water,298,-1.64,mol/L
O=S(=O)(N)c(ccc(c1)C)c1,water,298,-1.74,mol/L
O=S(=O)(N)c(c(ccc1)C)c1,water,298,-2.02,mol/L
CCCN(CCC)c1c(cc(cc1N(=O)=O)S(N)(=O)=O)N(=O)=O,water,298,-5.16,mol/L
O=P(OCC)(OCC)OCC,water,298,0.43,mol/L
O=P(Oc1ccc(O)cc1C)(Oc2cc(O)ccc2C)Oc3c(O)cccc3C,water,298,-6.7,mol/L
CCOP(=S)(OCC)SCSCC,water,298,-4.11,mol/L
CCOP(=S)(OCC)SCCSCC,water,298,-4.23,mol/L
COP(=S)(OC)SCN2C(=O)c1ccccc1C2=O,water,298,-4.1,mol/L
COP(=S)(OC)Oc1nc(Cl)c(Cl)cc1Cl,water,298,-4.82,mol/L
COP(=S)(OC)Oc1ccc(cc1)N(=O)=O,water,298,-3.68,mol/L
COP(=S)(OC)Oc1ccc(cc1Cl)N(=O)=O,water,298,-4.31,mol/L
CCOP(=S)(OCC)SCSP(=S)(OCC)OCC,water,298,-5.54,mol/L
O=P(SCCCC)(SCCCC)SCCCC,water,298,-5.14,mol/L
COP(=S)(OC)Oc1cc(Cl)c(Br)cc1Cl,water,298,-6.09,mol/L
COP(=S)(OC)Oc1cc(Cl)c(Cl)cc1Cl,water,298,-5.72,mol/L
O=C(O)CCC(C(C(C(C(C(C(C(C1)CC(O)C2)(C2)C)C3)C1O)C4)(C3O)C)C4)C,water,298,-3.37,mol/L
O=C(O)CCC(C(C(C(C(C(C(C(C1)CC(O)C2)(C2)C)C3)C1)C4)(C3O)C)C4)C,water,298,-3.95,mol/L
C1C(O)CC2CC(O)C3C4CCC(C(C)CCC(=O)O)C4(C)CCC3C2(C)C1,water,298,-3.82,mol/L
CC(CCC(O)=O)C3CCC4C2C(O)CC1CC(O)CCC1(C)C2CCC34C,water,298,-3.64,mol/L
c1cc2N3C(C)=NN=C3CN=C(c4c(Cl)cccc4)c2cc1Cl,water,298,-4.08,mol/L
COc1ccc2n(C(=O)c3ccc(Cl)cc3)c(C)c(CC(=O)O)c2c1,water,298,-4.62,mol/L
s1c(N)ncc1,water,298,-0.36,mol/L
N(c(c(c(ccc1)cc2)c1)c2)=C=S,water,298,-4.6,mol/L
N#CCCCl,water,298,-0.29,mol/L
N#CCC=CC,water,298,-0.96,mol/L
O=C(Nc(ccc(N)c1)c1)C,water,298,-0.98,mol/L
O=C(Nc(ccc(c1)Br)c1)C,water,298,-3.08,mol/L
O=C(Nc(ccc(c1)F)c1)C,water,298,-1.78,mol/L
O=C(Nc(ccc(c1)C=O)c1)C,water,298,-1.58,mol/L
O=C(Nc(ccc(c1)I)c1)C,water,298,-3.25,mol/L
O=C(Nc(ccc(c1)OC)c1)C,water,298,-1.3,mol/L
CN(C)C(=O)NC1CCCCCCC1,water,298,-2.36,mol/L
CCCCOc2cc(C(=O)NCCN(CC)CC)c1ccccc1n2,water,298,-3.7,mol/L
CN(C)CCC=C2c1ccccc1COc3ccccc23,water,298,-3.4,mol/L
FC(F)(F)c(cccc1C(n(ncn2)c2)(c(cccc3)c3)c(cccc4)c4)c1,water,298,-8.4,mol/L
N(c(c(ccc1)C2)c1)C2,water,298,-1.04,mol/L
O=C(NC1C2C3CCCC3C(C1)C2)N(C)C,water,298,-3.01,mol/L
CC(C)c1ccc(NC(=O)N(C)C)cc1,water,298,-3.54,mol/L
Cc1ccc2C(=O)C(C(=O)O)=CN(CC)c2n1,water,298,-3.37,mol/L
C1CNCCN1c2ncc3C(=O)C(C(=O)O)=CN(CC)c3n2,water,298,-2.98,mol/L
CC34CCC1C(CCC2=CC(=O)CCC12)C3CCC4(O)C#C,water,298,-4.57,mol/L
CC(=O)OC3(CCC4C2CCC1=CC(=O)CCC1C2CCC34C)C#C,water,298,-4.79,mol/L
O=C1C=C2C(C)CC3C4CCC(O)(C(=O)CO)C4(C)CC(O)C3C2(C)C=C1,water,298,-2.99,mol/L
Oc1c(I)cc(C#N)cc1I,water,298,-3.61,mol/L
O=C1NC(=S)NC(=O)C1(CC)C(C)CCC,water,298,-3.36,mol/L
O=C(NC(=O)C(O)(C1=O)C(O)(C(=O)NC(=O)N2)C2=O)N1,water,298,-2.23,mol/L
Cc1c(C)cc2N=C3C(=O)NC(=O)N=C3N(CC(O)C(O)C(O)CO)c2c1,water,298,-3.68,mol/L
O=C(O)c(c(c(N)cc1Cl)Cl)c1,water,298,-2.47,mol/L
CN(C)C2C1CC4C(=C(O)C1(O)C(=O)C(=C2O)C(N)=O)C(=O)c3c(O)cccc3C4(C)O,water,298,-3.12,mol/L
O=C(N)C(=C(O)C(N(C)C)C(C1(O)C(O)=C(C2C(O)(c(c3c(O)cc4)c4)C)C3=O)C2O)C1=O,water,298,-3.14,mol/L
O=C(O)C(N)Cc(cccc1)c1,water,298,-1.23,mol/L
CN(C)C(=O)C(c1ccccc1)c2ccccc2,water,298,-2.98,mol/L
O=C(O)C(N)CCSC,water,298,-0.42,mol/L
CCCCN(CC)C(=O)SCCC,water,298,-3.35,mol/L
O=C(OC)c(cccn1)c1,water,298,-0.46,mol/L
CCCOC(=O)c1ccc(N)cc1,water,298,-2.33,mol/L
O=C(OCC1)C1,water,298,1.07,mol/L
O=C(OC)c(cc(O)c(O)c1O)c1,water,298,-1.24,mol/L
O=C(OC)c(ccc(O)c1)c1,water,298,-1.78,mol/L
O=C(OCC)C=Cc(cccc1)c1,water,298,-3.0,mol/L
O=C(OCC)CCC(=O)OCC,water,298,-0.96,mol/L
O=C(OCC=C)c(c(ccc1)C(=O)OCC=C)c1,water,298,-3.13,mol/L
O=C(OCCCC)c(cccc1)c1,water,298,-3.48,mol/L
O=C(OC)c(ccc(N)c1)c1,water,298,-1.59,mol/L
CCCCCCOC(=O)c1ccc(N)cc1,water,298,-3.95,mol/L
O=C(Nc(cccc1)c1)c(c(O)ccc2)c2,water,298,-3.59,mol/L
ONc(cccc1)c1,water,298,-0.74,mol/L
S(c(cccc1)c1)C,water,298,-2.39,mol/L
O=CNc(cccc1)c1,water,298,-0.68,mol/L
c1cc(NC(=O)C)ccc1S(=O)(=O)N,water,298,-1.61,mol/L
O=C(Nc(cccc1C)c1)C,water,298,-2.09,mol/L
O=C(Nc(c(N(=O)=O)ccc1)c1)C,water,298,-1.91,mol/L
O=C(N(c(cccc1)c1)C)C,water,298,-0.95,mol/L
O=C(Nc(c(O)ccc1)c1)C,water,298,-2.24,mol/L
c1cc(N)ccc1C(=O)OCCNCCCCC,water,298,-3.27,mol/L
c1c(N(=O)(=O))cc2C(c3ccccc3)=NCC(=O)N(C)c2c1,water,298,-3.8,mol/L
c1cc(OCCCC)ccc1C(=O)OCCN(CC)CC,water,298,-3.84,mol/L
n(c(N(Cc(cccc1)c1)CCN(C)C)ccc2)c2,water,298,-2.64,mol/L
C1C(=O)C=C2C(C)=CC3C4CCC(C(=O)C)(C)C4(C)CCC3C2(C)C1,water,298,-5.27,mol/L
C1C(=O)C=C2C(C)=CC3C4CCC(C(=O)C)(OC(=O)C)C4(C)CCC3C2(C)C1,water,298,-5.35,mol/L
C1CCCCC1CC,water,298,-4.25,mol/L
c1c(Cl)c(Cl)cc(O)c1OC,water,298,-2.53,mol/L
O=C(C(=CCC1C(=C)C)C)C1,water,298,-2.06,mol/L
O=N(=O)NC(=N)N,water,298,-1.37,mol/L
O=C(N)CCl,water,298,-0.02,mol/L
O=C(NC(=O)C1=O)N1,water,298,-0.4,mol/L
O=C(O)CCI,water,298,-0.43,mol/L
O=N(=O)OCC(ON(=O)=O)CON(=O)=O,water,298,-2.22,mol/L
O=C(NC(=O)C)N,water,298,-0.9,mol/L
OCC(O)CO,water,298,1.12,mol/L
O=C(NC(=O)C(=O)C1=O)N1,water,298,-1.25,mol/L
O=C(NC(=O)C(N(=O)=O)C1=O)N1,water,298,-2.28,mol/L
O=C1N=CN=CC1,water,298,0.59,mol/L
O=C(NC(=O)C1)C1,water,298,0.3,mol/L
O=C(NCC(=O)N1)C1,water,298,-0.83,mol/L
O=C(NC(NC(=O)N1)C1=O)N,water,298,-1.6,mol/L
ClCCS(=O)CCCl,water,298,-1.16,mol/L
ClCCS(=O)(=O)CCl,water,298,-1.5,mol/L
O(CC(O)C1)C1,water,298,1.05,mol/L
CCC(N)C(=O)O,water,298,0.31,mol/L
O=C(O)CC(N)C,water,298,1.08,mol/L
O=C(O)C(N)C(O)C,water,298,-0.09,mol/L
C1(=O)NC(=O)NC(C(=O)O)=C1,water,298,-1.93,mol/L
n(c(O)ccc1)c1,water,298,1.02,mol/L
n(cccc1O)c1,water,298,-0.46,mol/L
O=C(N(C(C1=O)(C)C)Cl)N1Cl,water,298,-2.6,mol/L
n(cc(c(n1)O)C)c1S,water,298,-2.45,mol/L
n(c(O)cc(n1)C)c1S,water,298,-2.43,mol/L
CCC1NC(=O)NC1(=O),water,298,-0.06,mol/L
CC(=O)N=C1N(C)N=C(S(=O)(=O)N)S1,water,298,-1.83,mol/L
O=C(O)C(N)CCC(=O)N,water,298,-0.55,mol/L
N(CSC(N1C)=S)(C1)C,water,298,-2.13,mol/L
c1c(Cl)c(Cl)c2nsnc2c1Cl,water,298,-4.98,mol/L
c1c(Cl)nc2cncnc2n1,water,298,-0.87,mol/L
c1cnc2cncnc2n1,water,298,0.02,mol/L
c1cnc2cnc(S)nc2n1,water,298,-2.77,mol/L
c1c(S)nc2cncnc2n1,water,298,-2.71,mol/L
O=C(O)C=CC(N=CN1)=C1,water,298,-1.96,mol/L
CN1C(=O)NC(NC2=O)=C(N2)C1=O,water,298,-1.56,mol/L
O=N(=O)OC(C(OCC1ON(=O)=O)C1O2)C2,water,298,-2.63,mol/L
O=C(O)C(N)CC(N=CN1)=C1,water,298,-0.53,mol/L
C=CCS(=O)SCC=C,water,298,-0.83,mol/L
OC1C(O)C(O)C(O)C(O)C1,water,298,-0.17,mol/L
NC(=O)OCCCCC,water,298,-1.47,mol/L
NC(=O)OCC(C)(C)C,water,298,-0.8,mol/L
OCC(O)C(O)C(O)C(O)CO,water,298,1.09,mol/L
O=N(=O)c(c(c(c(c1Cl)Cl)Cl)Cl)c1Cl,water,298,-5.82,mol/L
Oc1c(Br)cc(C#N)cc1Br,water,298,-3.33,mol/L
O=C(O)c(c(O)c(cc1I)I)c1,water,298,-3.31,mol/L
O=C(O)c(c(ccc1)I)c1,water,298,-2.73,mol/L
c1cnc2c(C)ncnc2n1,water,298,-0.12,mol/L
c1cnc2cnc(C)nc2n1,water,298,-0.47,mol/L
c1c(C)nc2cncnc2n1,water,298,0.06,mol/L
c1cnc2cnc(OC)nc2n1,water,298,-1.11,mol/L
c1c(OC)nc2cncnc2n1,water,298,-0.91,mol/L
c1cnc2c(SC)ncnc2n1,water,298,-1.76,mol/L
c1cnc2cnc(SC)nc2n1,water,298,-2.36,mol/L
O=Cc(c(O)ccc1)c1,water,298,-0.86,mol/L
O=C(O)c(cc(O)c(O)c1O)c1,water,298,-1.16,mol/L
O=C(N)c(c(O)ccc1)c1,water,298,-1.76,mol/L
c1ccccc1NC(=O)NN,water,298,-2.33,mol/L
c1cc(N)ccc1S(=O)(=O)NC(=N)N,water,298,-1.99,mol/L
O=C(CCCC1C)C1,water,298,-1.87,mol/L
C1CCCC(C)C1=O,water,298,-0.94,mol/L
NC(=O)OCCCCCC,water,298,-1.92,mol/L
O=C(OC(=O)c1cccc2)c12,water,298,-1.39,mol/L
O=C(O)Cc(c(ccc1Cl)Cl)c1Cl,water,298,-3.08,mol/L
O=C(O)COc(c(cc(c1Cl)Cl)Cl)c1,water,298,-2.96,mol/L
OC(=O)c1ccccc1C(F)(F)F,water,298,-1.6,mol/L
OC(=O)COc1ccccc1Cl,water,298,-2.16,mol/L
O=C(O)COc(ccc(c1)Cl)c1,water,298,-2.29,mol/L
O=C(OC)c(c(c(N)cc1Cl)Cl)c1,water,298,-3.26,mol/L
C1CCCCC1OC(=O)C,water,298,-1.67,mol/L
O=C(O)c(ccc(O)c1OC)c1,water,298,-2.05,mol/L
Oc(cc(c(c1C)Cl)C)c1,water,298,-2.8,mol/L
c1ccc(N)cc1C(=O)C,water,298,-1.28,mol/L
O=C(c(ccc(N)c1)c1)C,water,298,-1.61,mol/L
Oc(c(c(cc1)C)C)c1,water,298,-1.43,mol/L
Oc(c(ccc1C)C)c1,water,298,-1.54,mol/L
Oc(c(ccc1)C)c1C,water,298,-1.31,mol/L
Oc(ccc(c1C)C)c1,water,298,-1.41,mol/L
O=C(O)C(C(C(=O)O)C(O1)CC2)C12,water,298,-0.27,mol/L
O=C(N(CC=C)CC=C)C(Cl)Cl,water,298,-1.62,mol/L
O(C(OC(C1O)C(O)CO)C1O2)C2C(Cl)(Cl)Cl,water,298,-1.84,mol/L
OC(c(cccc1)c1)CN,water,298,-0.48,mol/L
CCN(CC)C(=S)SCC(Cl)=C,water,298,-3.39,mol/L
CCCCC(=O)CC(=O)C,water,298,-1.56,mol/L
CC(=O)C(CCC)C(=O)C,water,298,-0.88,mol/L
CC(C)(C)C(=O)CC(=O)C,water,298,-1.63,mol/L
N1CCCCC1CC(=O)C,water,298,-0.45,mol/L
O=C1NCCN1C(=O)NCC(C)C,water,298,-2.15,mol/L
CC1(C)CC(C)CC1,water,298,-4.48,mol/L
CC1CCC(C)CC1,water,298,-4.47,mol/L
C1C(CCC)CCC1,water,298,-4.74,mol/L
C1C(C)C(C)CCC1,water,298,-4.33,mol/L
NC(=O)OCCCCCCC,water,298,-2.62,mol/L
CCCC(O)C(CC)CO,water,298,-0.54,mol/L
CN2C(=O)ON(c1ccc(Cl)c(Cl)c1)C2=O,water,298,-2.82,mol/L
Cc1cccc2sc3nncn3c12,water,298,-2.07,mol/L
O=C(O)C(Oc(c(cc(c1)Cl)Cl)c1)C,water,298,-2.45,mol/L
c1ccccc1C(=C)C(=O)O,water,298,-2.06,mol/L
O=C(O)COc(c(cc(c1)Cl)C)c1,water,298,-2.23,mol/L
O=C(C(Cc1cc(c(c(c1)I)O)I)N)O,water,298,-2.86,mol/L
O=C(O)CCc(cccc1)c1,water,298,-1.41,mol/L
OCC(C(O)=O)c1ccccc1,water,298,-0.93,mol/L
O=C(c(ccc(N)c1)c1)CC,water,298,-2.63,mol/L
c1ccccc1NC(=O)CC,water,298,-1.92,mol/L
O=C(Oc(cccc1C)c1)NC,water,298,-1.8,mol/L
O=C(O)C(N)Cc(ccc(O)c1O)c1,water,298,-1.6,mol/L
OC(=O)CC(C)(C(=O)O)C(C)(C)C(=O)O,water,298,-0.29,mol/L
C1C(N2C)CC(O)C(C(=O)O)C2C1,water,298,-0.02,mol/L
O=C(O)CCCCCCCC(=O)O,water,298,-1.89,mol/L
O=C(ON=C(C(C)(C)C)CSC)NC,water,298,-1.62,mol/L
CCCCCCCCOC(=O)N,water,298,-3.3,mol/L
ClC1=C(Cl)C(Cl)(C2(Cl)Cl)C3CC=CC3C12Cl,water,298,-5.64,mol/L
OC1C=CC2C1C3(Cl)C(=C(Cl)C2(Cl)C3(Cl)Cl)Cl,water,298,-5.46,mol/L
O=C1C(Br)=C(N)C=NN1c2ccccc2,water,298,-3.12,mol/L
ClC(Cl)C(Cl)(Cl)SN2C(=O)C1CC=CCC1C2=O,water,298,-5.4,mol/L
c1ccc2c(O)cc(C)nc2c1,water,298,-1.2,mol/L
COC(=O)C(Cl)Cc1ccc(Cl)cc1,water,298,-3.77,mol/L
OC(=O)CCCOc1ccc(Cl)cc1Cl,water,298,-3.67,mol/L
c1cc(N)ccc1S(=O)(=O)Nc2cnccn2,water,298,-3.7,mol/L
OC(=O)c1c(C=O)ccc(OC)c1OC,water,298,-1.92,mol/L
O=C(O)C(Oc(c(cc(c1)Cl)C)c1)C,water,298,-2.55,mol/L
CNC(=O)ON=C1C(C2)C(C#N)CC2C1Cl,water,298,-2.08,mol/L
CCC2NC(=O)c1cc(c(Cl)cc1N2)S(N)(=O)=O,water,298,-3.29,mol/L
O=C(N(S(=O)(=O)Nc1cccc2)C(C)C)c12,water,298,-2.68,mol/L
OCC1OC(C(O)C1O)n2cnc3C(=O)NC=Nc23,water,298,-1.23,mol/L
O(c(ccc(c1)C=CC)c1)C,water,298,-3.13,mol/L
c1cc(Cl)ccc1S(=O)(=O)NC(=O)NCCC,water,298,-3.03,mol/L
ClC(Cl)(Cl)C(NC=O)N1CCN(CC1)C(NC=O)C(Cl)(Cl)Cl,water,298,-4.19,mol/L
O=C(N(C(=O)C(N(C=N1)CC(O)CO)=C12)C)N2C,water,298,-0.17,mol/L
Nc(c(ccc1)CC)c1CC,water,298,-2.35,mol/L
OCCN(c(cccc1)c1)CCO,water,298,-0.73,mol/L
O=C(C(C(C1C2)(C)C)(C2)C)C1,water,298,-1.99,mol/L
O=CC=C(CCC=C(C)C)C,water,298,-2.06,mol/L
O=C1C(C)CCC(C(C)=C)C1,water,298,-2.18,mol/L
O=C(O)C(C(C(C(=O)O)C1)(C)C)(C1)C,water,298,-1.42,mol/L
OC(C(C(C1C2)(C)C)(C2)C)C1,water,298,-2.32,mol/L
O(C(CCC1C2)(C2)C)C1(C)C,water,298,-1.64,mol/L
OC(C=C)(CCC=C(C)C)C,water,298,-1.99,mol/L
OC(C(CCC1C)C(C)C)C1,water,298,-2.53,mol/L
c1cc2C(=O)C=C(C)C(=O)c2cc1,water,298,-3.03,mol/L
c1ccc2C(O)N3CCC(O)C3=Nc2c1,water,298,-2.07,mol/L
n(c(c(ccc1C)cc2)c1)c2C,water,298,-1.94,mol/L
O=S(=O)(Nc(nccc1)c1)c(ccc(N)c2)c2,water,298,-2.7,mol/L
O=S(=O)(Nc(nccc1C)n1)c(ccc(N)c2)c2,water,298,-2.85,mol/L
Cc1cc(C)c(NC(=O)C)cc1NS(=O)(=O)C(F)(F)F,water,298,-3.24,mol/L
O=C1N(c2ccccc2)N(C)C(C)=C1N,water,298,-0.62,mol/L
c1cc(N)ccc1S(=O)(=O)Nc2nc(C)c(C)o2,water,298,-2.44,mol/L
O=S(=O)(Nc(onc1C)c1C)c(ccc(N)c2)c2,water,298,-2.91,mol/L
C1=CC(=O)N2CC(C3)CNCC3C2=C1,water,298,0.36,mol/L
CCSCc1ccccc1OC(=O)NC,water,298,-2.09,mol/L
CNC(=O)Oc1cccc(N=CN(C)C)c1,water,298,-2.34,mol/L
CCOP(=S)(OCC)SCSc1ccc(Cl)cc1,water,298,-5.74,mol/L
CNC(=O)Oc1ccc(N(C)C)c(C)c1,water,298,-2.36,mol/L
C1C(C)(C)CC(=O)C=C1OC(=O)N(C)C,water,298,-0.85,mol/L
CCOP(=S)(OCC)Oc1ccc(cc1)S(C)=O,water,298,-2.3,mol/L
CN(C)C(=O)Oc1nc(nc(C)c1C)N(C)C,water,298,-1.95,mol/L
Cc1c(CCCC)c(O)nc(N(C)C)n1,water,298,-2.24,mol/L
CCSC(=O)N(CC)C1CCCCC1,water,298,-3.4,mol/L
O=C(OC)CCCCCCCCC,water,298,-4.63,mol/L
O=C(N(CC(C)C)CC(C)C)SCC,water,298,-3.68,mol/L
O=C(O)CCCCCCCCCCN,water,298,-2.7,mol/L
O(c(c(O)cc(c1)Cl)c1)c(c(cc(c2)Cl)Cl)c2,water,298,-4.46,mol/L
O=C1C=Cc2cc3ccoc3c(OC)c2O1,water,298,-3.66,mol/L
c1c(C(F)(F)F)cccc1N2C(=O)C(Cl)=C(NC)C=N2,water,298,-4.04,mol/L
O=NN(c(cccc1)c1)c(cccc2)c2,water,298,-3.75,mol/L
Cc1occc1C(=O)Nc2ccccc2,water,298,-3.3,mol/L
O=S(=O)(c(ccc(N)c1)c1)c(ccc(N)c2)c2,water,298,-2.82,mol/L
CC(C#C)N(C)C(=O)Nc1ccc(Cl)cc1,water,298,-3.9,mol/L
c1cc(N)ccc1S(=O)(=O)Nc2nc(C)nc(C)c2,water,298,-2.24,mol/L
CCNC(=O)C(C)OC(=O)Nc1ccccc1,water,298,-1.83,mol/L
c1cc(N)ccc1S(=O)(=O)Nc2nnc(C(C)(C)C)s2,water,298,-3.74,mol/L
O=C(OCCC(C)C)c(c(O)ccc1)c1,water,298,-3.16,mol/L
O=C(NCCCC)NS(=O)(=O)c(ccc(c1)C)c1,water,298,-3.39,mol/L
N(CCCC)(CCCC)CCCC,water,298,-3.12,mol/L
Clc1cc(N(=O)(=O))ccc1NC(=O)c2cc(Cl)ccc2O,water,298,-4.7,mol/L
OC(=O)c1cccnc1Nc2cc(C(F)(F)F)ccc2,water,298,-4.17,mol/L
c1ccc2c(c1)cnc3ccccc23,water,298,-2.78,mol/L
O=C(Nc(cccc1)c1)Nc(cccc2)c2,water,298,-3.15,mol/L
CC1=C(CCCO1)C(=O)Nc2ccccc2,water,298,-2.56,mol/L
CN(C)C(=O)Oc1cc(C)nn1c2ccccc2,water,298,-2.09,mol/L
c1cc(N)ccc1S(=O)(=O)N(C(=O)C)c2onc(C)c2C,water,298,-3.59,mol/L
CC(=O)Oc1c(N(=O)(=O))c(C)c(N(=O)(=O))cc1C(C)(C)C,water,298,-4.47,mol/L
CCOC2Oc1ccc(OS(C)(=O)=O)cc1C2(C)C,water,298,-3.42,mol/L
c1cc(CC(C)C)ccc1C(C)C(=O)NO,water,298,-3.04,mol/L
c1c(CO)c(O)ccc1C(O)CNC(C)(C)C,water,298,-1.22,mol/L
O=C(OC)CCCCCCCCCCC,water,298,-4.69,mol/L
ClC(=C(c1ccccc1Cl)c2ccc(cc2)Cl)Cl,water,298,-6.36,mol/L
O=C(c(c(C(=O)c1c(O)c(O)cc2)ccc3)c3)c12,water,298,-2.78,mol/L
O=C(NC(=O)c(c(F)ccc1)c1F)Nc(ccc(c2)Cl)c2,water,298,-6.02,mol/L
c1ccc2C(=O)N=C(c3ccccc3)Oc2c1,water,298,-4.61,mol/L
ClC(Cl)C(c1ccc(Cl)cc1)c2ccccc2Cl,water,298,-6.51,mol/L
OC(=O)c1ccccc1Nc2cc(C(F)(F)F)ccc2,water,298,-4.36,mol/L
c1ccc2cc3ccccc3c(O)c2c1,water,298,-4.73,mol/L
Oc1ccc2Oc3cc(OC)cc(O)c3C(=O)c2c1,water,298,-2.93,mol/L
c1ccccc1C(=O)NC(=O)c2ccccc2,water,298,-2.27,mol/L
Cc1cc(ccc1NS(=O)(=O)C(F)(F)F)S(=O)(=O)c2ccccc2,water,298,-3.8,mol/L
N(c(c(S1)cc(c2)C)c2)=C1c(ccc(N)c3)c3,water,298,-3.68,mol/L
CC1=CC(=O)c2c(OC)c3ccoc3c(OC)c2O1,water,298,-2.4,mol/L
n(c(c(c(c1)C)ccc2c(ccn3)C)c23)c1,water,298,-3.97,mol/L
OC(c(cccc1)c1)Cc(cccc2)c2,water,298,-2.52,mol/L
c1ccccc1C(O)C(O)c2ccccc2,water,298,-1.93,mol/L
S=P(OCC)(OCC)Oc1ccc2C(C)=C(Cl)C(=O)Oc2c1,water,298,-5.38,mol/L
c1ccc2C(=O)N(C(CCl)SP(=S)(OCC)OCC)C(=O)c2c1,water,298,-6.34,mol/L
O=C1NC(=O)NC(=O)C1(CC)C2=CC(C3)CCC3C2,water,298,-2.64,mol/L
COc2ccc(CC1NCC(O)C1OC(C)=O)cc2,water,298,-1.61,mol/L
CC1CCCCC1NC(=O)Nc2ccccc2,water,298,-4.11,mol/L
CC(C)OP(=S)(OC(C)C)SCCNS(=O)(=O)c1ccccc1,water,298,-4.2,mol/L
C(O)CCCCCCCCCCCCC,water,298,-6.05,mol/L
c1ccc2c3ccc(Cl)cc3C(O)(C(=O)O)c2c1,water,298,-4.18,mol/L
NC(Cc2cc(I)c(Oc1ccc(O)c(I)c1)c(I)c2)C(O)=O,water,298,-5.22,mol/L
c1ccc2Sc3ccc(CC(=O)O)cc3N(C)c2c1,water,298,-3.94,mol/L