Solute,Solvent,Temperature_K,Solubility,Units
CC1NC(=O)C2=C(C=CC=C2)N(CC(O)C(O)C(O)CO)C1=O,water,298,-1.51,mol/L
O=C1NCC(=O)N(CC(O)C(O)C(O)CO)C2=C1C=CC=C2,water,298,-1.46,mol/L
CC1=C(C(=O)O)C=C(C(O)C(O)C(O)CO)O1,water,298,-1.28,mol/L
OCC1OC(OC2=CC=CC=C2)C(O)C(O)C1O,water,298,-1.46,mol/L
CC(O)C(O)C1=NC2=C(N=C1)N=C(N)NC2=O,water,298,-3.1,mol/L
COC1=CC2=CC=C(C(C)C(=O)OCCN3CCNCC3)C=C2C=C1,water,298,-1.52,mol/L
COC1=CC2=CC=C(C(C)C(=O)OCCN3CCN(C)CC3)C=C2C=C1,water,298,-1.49,mol/L
COC1=CC2=CC=C(C(C)C(=O)OCCCCN3CCOCC3)C=C2C=C1,water,298,-3.7,mol/L
COC1=C(C=C(C=C1)[N+](=O)[O-])N,water,298,-3.17,mol/L
COC1=CC=C2C=C(C(C)C(=O)OCCCCN3CCN(C)CC3)C=CC2=C1,water,298,-1.29,mol/L
O=C1NC2=C(C=CC=C2)C(=O)N2CCCC12,water,298,-3.75,mol/L
O=C1NC2=C(C=C(Cl)C=C2)C(=O)N2CCCC12,water,298,-4.7,mol/L
CNC(=NC#N)NCCSCC1=C(C)NC=N1,water,298,-1.71,mol/L
O=C1NC2=C(C=CC=C2)C(=O)N2CC(O)CC12,water,298,-2.37,mol/L
CC1=C2C(O)C3C(CC(C)C2CC1=O)OC(=O)C3C,water,298,-1.95,mol/L
CC(=O)NC(CC1=CNC2=C1C=CC=C2)C(=O)O,water,298,-2.31,mol/L
CCOC(=O)C1=CC2(CC)CCCN3CCC4=C(C32)N1C1=C4C=CC=C1,water,298,-4.84,mol/L
ClC1=C(Cl)C2(Cl)C3C4OC4C(Cl)C3C1(Cl)C2(Cl)Cl,water,298,-6.05,mol/L
C1=CC=C(C2=CN=C(C3=CC=C(CN4CCOCC4)C=C3)O2)C=C1,water,298,-4.35,mol/L
CN1CC(O)C2=CC(=NNC(N)=O)C(=O)C=C21,water,298,-2.72,mol/L
C1=CC(=CC(=C1)[N+](=O)[O-])C(=O)O,water,298,-1.81,mol/L
CN(C)N=NC1=CC=C(C(=O)O)C=C1,water,298,-0.8,mol/L
NC(CC1=CNC2=C1C=CC=C2)C(=O)NCC(=O)O,water,298,-0.85,mol/L
NC1=NC(=O)N(C2CC(F)C(CO)O2)C=C1,water,298,-1.18,mol/L
O=C(O)C1=C(Cl)C=C(N=NC2=CC=C(O)C=C2)C=C1,water,298,-2.62,mol/L
C1=CC(=CC(=C1)OC2C(C(C(C(O2)CO)O)O)O)[N+](=O)[O-],water,298,-1.28,mol/L
O=C(O)C1CN2CCC1CC2C(O)C1=CC=NC2=C1C=CC=C2,water,298,-1.94,mol/L
C1=CC=C(C(=C1)NN=C2C=CC(=O)C(=C2)C(=O)O)[N+](=O)[O-],water,298,-2.01,mol/L
COCC1COC2=C(C=C3C(=C2)N=CN=C3NC2=CC(Br)=CC=C2)O1,water,298,-3.22,mol/L
CC(=O)OC1C2C(CC(C)C3C=CC(=O)C31C)OC(=O)C2C,water,298,-2.19,mol/L
COCC1COC2=C(C=C3C(=C2)N=CN=C3NC2=CC(I)=CC=C2)O1,water,298,-3.52,mol/L
NC1=CC=C(S(=O)(=O)NC2=CC=C(S(N)(=O)=O)C=C2)C=C1,water,298,-2.76,mol/L
O=C(O)C1CCC(=O)N1CN1C(=O)CCC1C(=O)O,water,298,-1.31,mol/L
COC1=CC=C(CC2NC(=O)N(C(C)C(=O)O)C2=O)C=C1,water,298,-0.86,mol/L
CC(C)C(NS(=O)(=O)C1=CC=C(F)C=C1)C(=O)NC1CCOC1O,water,298,-2.38,mol/L
CC(C)CC(NC(=S)NC1=CC=CC=C1)C(=O)NC1CCOC1O,water,298,-2.37,mol/L
COC1=CC(=O)C2(OC3=C(C2=O)C(OC)=CC(OC)=C3Cl)C(C)C1,water,298,-4.4,mol/L
CC(C)CC(N)C(=O)NC(CC1=CNC2=C1C=CC=C2)C(=O)O,water,298,-1.12,mol/L
COC1=CC2=C(C=C1)N=CC=C2C(O)C1CC2CCN1CC2C(=O)O,water,298,-2.03,mol/L
COC1=CC(OC)=C(Cl)C2=C1C(=O)C1(O2)C(C)CC(O)CC1O,water,298,-2.34,mol/L
COC1=CC(OC)=C(Cl)C2=C1C(=O)C1(O2)C(OC)=CC(=O)CC1C,water,298,-4.7,mol/L
CC12CCC(O)CC1CCC1C2CCC2(C)C(C3=CC(=O)OC3)CCC12O,water,298,-4.57,mol/L
C1=CC=C(N=NC2=CC=CC=C2)C=C1,water,298,-3.94,mol/L
OC1=CC=C(N=NC2=CC=CC=C2)C=C1,water,298,-3.95,mol/L
OC1=CC(O)=C(N=NC2=CC=CC=C2)C=C1,water,298,-3.08,mol/L
O=C1C(O)C2CC3N1CCC31C3=C(C=CC=C3)N3C(=O)C=CC2C31,water,298,-2.11,mol/L
O=C(O)C1=CC=C(N=NC2=CC=C(O)C=C2)C=C1,water,298,-4.38,mol/L
O=C(O)C1=C(O)C=CC(N=NC2=CC=CC=C2)=C1,water,298,-3.05,mol/L
OCC(O)C(O)C1=NN(C2=CC=CC=C2)C2=C1N=C1C=CC=CC1=N2,water,298,-3.13,mol/L
CC1(C)SC2C(NC(=O)COC3=CC=CC=C3)C(=O)N2C1C(=O)O,water,298,-2.81,mol/L
C1=CC(=CC=C1C(=O)O)[N+](=O)[O-],water,298,-2.6,mol/L
CC(C)C1OC(O)C(CC2=CC=CC=C2)NC1=O,water,298,-2.28,mol/L
CC(C)CC1OC(O)C(CC2=CC=CC=C2)NC1=O,water,298,-2.12,mol/L
CC(=O)NS(=O)(=O)C1=CC=C(N)C=C1,water,298,-1.23,mol/L
NNC(=O)C1=CC=C(C(=O)NN)C=C1,water,298,-2.29,mol/L
CC(NC(=O)C(N)C1=CC=CC=C1)C1=CC=CC=C1,water,298,-1.66,mol/L
O=C1NC(=O)C(Cl)=C(CN2CCCC2)N1,water,298,-1.54,mol/L
O=C1NC(=O)C(Br)=C(CN2CCCC2)N1,water,298,-1.78,mol/L
CC(=O)OCC1OC(OC(C)=O)C(OC(C)=O)C(OC(C)=O)C1OC(C)=O,water,298,-2.65,mol/L
CNCCC(OC1=CC=C(C(F)(F)F)C=C1)C1=CC=CC=C1,water,298,-1.59,mol/L
O=C(O)C(O)(CO)CC(O)CO,water,298,0.61,mol/L
ClCC(Cl)(Cl)Cl,water,298,-2.18,mol/L
CC(Cl)(Cl)Cl,water,298,-2.0,mol/L