Solute,Solvent,Temperature_K,Solubility,Units
O=C(COC(=O)C1=CC=CC=C1)N2CCCCC2,water,298,-2.5,mol/L
CCCOC(=O)OC1=CC=C(NC(C)=O)C=C1,water,298,-2.57,mol/L
CCCCC(=O)OCN1C(=O)NC=C(F)C1=O,water,298,-1.66,mol/L
CSC1=NC(=NC(=N1)N=[N]#N)NC(C)C,water,298,-3.48,mol/L
C1=CC2=C3C(=C1)C=CC=C3C=C2,water,298,-3.96,mol/L
CSC1=NC2=C(C=NC=N2)N=C1,water,298,-1.55,mol/L
CSC1=NC2=C(C=N1)N=CC=N2,water,298,-1.75,mol/L
OC(=O)COC1=CC(=C(Cl)C(=C1)Cl)Cl,water,298,-2.94,mol/L
CCCCCC(=O)OC1=CC=C(NC(C)=O)C=C1,water,298,-4.14,mol/L
CCCCCCCCC(=O)NNC(=O)C1=CC=NC=C1,water,298,-3.52,mol/L
CCC(CC)C(=O)OC1=C(C=CC=C1)C(O)=O,water,298,-1.84,mol/L
OC(=O)COC1=C(Cl)C(=CC(=C1)Cl)Cl,water,298,-3.0,mol/L
OC(=O)COC1=C(Cl)C=C(Cl)C=C1Cl,water,298,-3.01,mol/L
CNC(=O)OC1=C(OC(CCl)OC)C=CC=C1,water,298,-2.3,mol/L
C=CCOC1=NC(=NC(=N1)OCC=C)OCC=C,water,298,-1.62,mol/L
CN1CCCCC1C(=O)NC2=C(C)C=CC=C2C,water,298,-1.99,mol/L
O=C(COC(=O)C1=CC=CC=C1)NC2CCCCC2,water,298,-3.9,mol/L
[O-][N+](=O)C1=C(NN=C(C#N)C#N)C=CC=C1,water,298,-3.93,mol/L
CSC1=NC=NC2=C1N=CC=N2,water,298,-2.37,mol/L
CC(=O)NC1=CC=C(C=C1)\C=N\NC(N)=S,water,298,-3.43,mol/L
OC(=O)COC1=C(Cl)C(=CC=C1Cl)Cl,water,298,-2.62,mol/L
CC1=NC2=C(C=N1)N=C(C)C(=N2)C,water,298,-1.15,mol/L
OC(=O)C1=CC(=CC(=C1)C(O)=O)C(O)=O,water,298,-0.9,mol/L
CC12CCC3C(=CCC4=C3C=CC(=C4)O)C1CCC2O,water,298,-4.4,mol/L
O=C(C1=CC=CC=C1)C2=NC=CC=C2,water,298,-2.02,mol/L
CCCCCC(=O)OCN1C(=O)NC=C(F)C1=O,water,298,-2.11,mol/L
OC(=O)CCCOC1=CC(=C(Cl)C=C1Cl)Cl,water,298,-3.83,mol/L
CN(C(C)=O)C(=O)COC(=O)C1=CC=CC=C1,water,298,-2.87,mol/L
CCCC(=N\OCC)/C1=C(O)CC(CC1=O)C2CCCSC2,water,298,-3.58,mol/L
CCCCOC(=O)OC1=CC=C(NC(C)=O)C=C1,water,298,-3.37,mol/L
CC(=O)OC1=CC2=C(C=CC=C2)C=C1,water,298,-3.44,mol/L
CCCCCCCCC(=O)OC1CCC2C3CCC4=CC(=O)CCC4C3CCC12C,water,298,-5.72,mol/L
CCN(CC)C(=O)C(C)OC(=O)C1=CC=CC=C1,water,298,-2.28,mol/L
CCC1(CCC(=O)N(CO)C1=O)C2=CC=CC=C2,water,298,-1.66,mol/L
OC(=O)C1=CC(=CC(=C1)[N+]([O-])=O)C(O)=O,water,298,-1.98,mol/L
O=C(COC(=O)C1=CC=CC=C1)N2CCCCCC2,water,298,-2.54,mol/L
CCCCCCCCCC(=O)NNC(=O)C1=CC=NC=C1,water,298,-4.17,mol/L
CC1=CC=C(OC2=CC=C(C)C=C2)C=C1,water,298,-4.85,mol/L
COCCOC(=O)OC1=CC=C(NC(C)=O)C=C1,water,298,-1.69,mol/L
OC(=O)CC1=CC=CC2=CC=CC=C12,water,298,-2.65,mol/L
OCN1C(=O)OC2=CC=C(Cl)C=C12,water,298,-2.7,mol/L
CC(=O)[N]1N=CC2=C1N=CNC2=O,water,298,-2.38,mol/L
ClC1=CC(=CC(=C1)C2(CO2)CC(Cl)(Cl)Cl)Cl,water,298,-5.25,mol/L
CCN(CC)C(=O)CSC1=CC=C(Cl)N=N1,water,298,-1.72,mol/L
CC1=NC2=C(N=C1C)C(=O)NC=N2,water,298,-2.29,mol/L
CC12CCC(=O)C=C1C=CC3C2CCC4(C)C3CCC4(O)CCC(O)=O,water,298,-5.17,mol/L
CC(=O)OC1=CC2=C(NC(=O)C2)C=C1,water,298,-1.54,mol/L
OC(=O)C1=C(C=C(C=C1)[N+]([O-])=O)[N+]([O-])=O,water,298,-1.06,mol/L
OC(=O)C1=CC(=C(C=C1)[N+]([O-])=O)[N+]([O-])=O,water,298,-1.5,mol/L
CCC1=NC2=C(N=CN=C2)N=C1CC,water,298,-0.18,mol/L
OC1=CC=C(C=C1)N=NC2=CC=CC=C2,water,298,-3.34,mol/L
NC(=N)NC(=O)C1=NC(=C(N)N=C1N)Cl,water,298,-2.87,mol/L
COC1=C(OC)C(=C(Cl)C(=C1Cl)Cl)Cl,water,298,-5.24,mol/L
CC1=NC2=C(NC1=O)N=CNC2=O,water,298,-2.2,mol/L
CCNC1=NC(=NC(=N1)NCC(=O)OCC)Cl,water,298,-2.94,mol/L
CCN(CC)CCOC(=O)C1=CC=C(NC(C)=O)C=C1,water,298,-1.65,mol/L
ClCC(=O)C1=CC=C(NN=C(C#N)C#N)C=C1,water,298,-3.19,mol/L
CCCCCOC(=O)C(N)CC1=CC(=C(O)C=C1)O,water,298,-0.99,mol/L
CCC(CC)(C(=O)NC(N)=O)C(=O)OCC1=CC=CC=C1,water,298,-3.66,mol/L
CCCCCCCC(=O)OC1=CC=C(NC(C)=O)C=C1,water,298,-4.44,mol/L
CN(C1CCCCC1)C(=O)COC(=O)C2=CC=CC=C2,water,298,-3.29,mol/L
NC1=NC(=O)C2=C(N1)N=CC(=O)N2,water,298,-3.86,mol/L
O=C1NC(=O)C2=C(N1)NC(=O)C=N2,water,298,-3.34,mol/L
CCC1CCCCN1C(=O)COC(=O)C2=CC=CC=C2,water,298,-2.72,mol/L
CCCCCCCC(=O)OCN1C(=O)NC=C(F)C1=O,water,298,-3.29,mol/L
O=C1NC=NC2=C1NC(=O)C(=O)N2,water,298,-3.69,mol/L
CC12CCC3C(=CCC4=C3C=CC(=C4)O)C1CCC2=O,water,298,-4.99,mol/L
CCC(C(=O)NC(N)=O)(C(=O)OC)C1=CC=CC=C1,water,298,-2.75,mol/L
CCO[P](=S)(OCC)SCC(=O)NC(C)C,water,298,-2.06,mol/L
COCC(C)OC(=O)OC1=CC=C(NC(C)=O)C=C1,water,298,-2.48,mol/L
CCCCCCOC(=O)OC1=CC=C(NC(C)=O)C=C1,water,298,-4.32,mol/L
CC1=C(C=CO1)C(=O)NC2=CC=CC=C2,water,298,-3.3,mol/L
OCN1C=NC2=C(C=N[N]2CO)C1=O,water,298,-1.72,mol/L
CCC(=O)[N]1N=CC2=C1N=CNC2=O,water,298,-2.81,mol/L
CC(C)CN(CC(C)C)C(=O)COC(=O)C1=CC=CC=C1,water,298,-3.56,mol/L
OC(=O)CN(C[P](O)(O)=O)C[P](O)(O)=O,water,298,0.12,mol/L
CCCCCCC(=O)OC1(CCC2C3CCC4=CC(=O)CCC4C3CCC12C)C#C,water,298,-6.89,mol/L
OC1=C(C2=C(C=CC=C2)C=C1)[N+]([O-])=O,water,298,-2.98,mol/L
CC(=O)C1=CC=C(OC2OC(CO)C(O)C(O)C2O)C=C1,water,298,-1.17,mol/L
C[N]1C=NC2=C1C(=NC(=O)N2)NCCO,water,298,0.08,mol/L
CNC(=O)N(C)C1=NN=C(S1)C(C)(C)CCl,water,298,-2.47,mol/L
CCOC(=O)CNC1=NC(=NC(=N1)NC(C)C)Cl,water,298,-2.56,mol/L
ClC1=CC2=C(C=C1)C=C(Cl)C(=C2)Cl,water,298,-7.14,mol/L
CC(O)CN(CC(C)O)C(=O)COC(=O)C1=CC=CC=C1,water,298,-1.18,mol/L
CC(C)(C)C1=C(O)C(=CC(=C1)[N+]([O-])=O)[N+]([O-])=O,water,298,-4.73,mol/L
CCCCCCCCCC(=O)OC1=CC=C(NC(C)=O)C=C1,water,298,-4.53,mol/L
CCC1(C(=O)NC(=S)NC1=O)C2=CC=CC=C2,water,298,-3.58,mol/L
CNC(=O)OC1=C(C=C(C)C=C1C(C)(C)C)C(C)(C)C,water,298,-4.6,mol/L
OC1(C(=O)NC(=O)NC1=O)C2(O)C(=O)NC(=O)NC2=O,water,298,-1.99,mol/L
S=C=NC1=CC=C(C=C1)C2=CC=CC=C2,water,298,-4.85,mol/L
NC1=CC(=C(C=C1)C(O)=O)[S](O)(=O)=O,water,298,-1.86,mol/L
NC(CC1=CC(=C(O)C=C1)O)C(=O)OC2CCCCC2,water,298,-1.27,mol/L
C1CC2=CC=C3CCCC4=CC=C(C1)C2=C34,water,298,-5.96,mol/L
OC(=O)COC1=C(Cl)C(=C(Cl)C=C1Cl)Cl,water,298,-3.41,mol/L
CCCC(=O)[N]1N=CC2=C1N=CNC2=O,water,298,-3.27,mol/L
CCC1=NC2=C(N=C(N)N=C2)N=C1CC,water,298,-3.04,mol/L
CN1CC(O)N(C1=O)C2=NN=C(S2)C(C)(C)C,water,298,-1.6,mol/L
OC(=O)CC1=CC=C(C=C1)C2=CC=CC=C2,water,298,-3.73,mol/L
CCC1=NC2=C(C=NC(=O)N2)N=C1CC,water,298,-2.3,mol/L
CCC1=NC2=C(N=C1CC)C(=NC=N2)N,water,298,-2.93,mol/L
CCN(CC)[S](=O)(=O)C1=CC=C(N)C=C1,water,298,-2.63,mol/L
CC[N]1C=NC2=C1C(=O)N(C)C(=O)N2C,water,298,-0.76,mol/L
CCN1C(=O)N(C)C2=C([N](C)C=N2)C1=O,water,298,-0.72,mol/L
CC(=O)OC1=CC=C(C=C1)C2=CC=CC=C2,water,298,-4.4,mol/L
OC1=CC(=C(C=C1)N=NC2=CC=CC=C2)O,water,298,-3.03,mol/L
CC(C)(C)NC(=O)C1CCC2C3CC=C4C=C(CCC4(C)C3CCC12C)C(O)=O,water,298,-8.76,mol/L
CC1(C)SC2C(N=CN3CCCCCC3)C(=O)N2C1C(O)=O,water,298,-4.5,mol/L
CCC1=NC2=C(N=C1CC)C(=O)NC=N2,water,298,-1.91,mol/L
OCC1OC(CC1O)N2C=C(C(=O)NC2=O)C(F)(F)F,water,298,-0.71,mol/L
CN1C(=O)N(C)C2=C([N](CO)C=N2)C1=O,water,298,-0.41,mol/L
CC1=CC=CC=C1N=NC2=CC=C(N)C(=C2)C,water,298,-4.51,mol/L
NC1=NC(=O)C2=C(N1)NC(=O)C(=O)N2,water,298,-5.17,mol/L
CCC1(C(=O)NC(=O)N(CO)C1=O)C2=CC=CC=C2,water,298,-1.6,mol/L
OC1=C(C=CC=C1)C(=O)OC2=CC=CC=C2,water,298,-3.15,mol/L
CC(=O)OCSC1=NC=NC2=C1N=C[NH]2,water,298,-2.15,mol/L
O=C1NC(=O)C2=C(N1)NC(=O)C(=O)N2,water,298,-4.06,mol/L
CC(=O)OC(C1=CC=C(Cl)C(=C1)Cl)C(Cl)(Cl)Cl,water,298,-3.83,mol/L
CC(C)C1(C)N=C(NC1=O)C2=NC=CC=C2C(O)=O,water,298,-1.36,mol/L
CNC(/NCCSCC1=CC=C(CN(C)C)O1)=C/[N+]([O-])=O,water,298,-2.5,mol/L
CC12CC(=O)C3C(CCC4=CC(=O)C=CC34C)C1CCC2(O)C(=O)CO,water,298,-3.48,mol/L
OC1CCN2C(=O)C3=C(C=CC=C3)N=C12,water,298,-2.1,mol/L
C1=CC2=CC=C3N=CC=CC3=C2C=C1,water,298,-3.34,mol/L
CCC[N]1C=NC2=C1C(=O)N(C)C(=O)N2C,water,298,0.02,mol/L
CCCN1C(=O)N(C)C2=C([N](C)C=N2)C1=O,water,298,-1.21,mol/L
CCC1=C(NC(=O)N1)C(=O)C2=CC=NC=C2,water,298,-1.99,mol/L
CC(=O)NC(CC1=CC=C(OC(C)=O)C=C1)C(N)=O,water,298,-1.9,mol/L
FC(F)(F)C1=NC2=C([NH]1)C=CC(=C2Cl)Cl,water,298,-3.57,mol/L
CC1=NC=C([N]1CCO[P](O)(O)=O)[N+]([O-])=O,water,298,-1.38,mol/L
ClC1=C(Cl)C(=O)C2=C(C=CC=C2)C1=O,water,298,-6.36,mol/L
CC1=CC2=C(N=C1)C(=C(Cl)C=C2)C(O)=O,water,298,-4.02,mol/L
CC#CC1=NC(=NC(=C1)C)NC2=CC=CC=C2,water,298,-4.6,mol/L
CCC(=O)OCSC1=NC=NC2=C1N=C[NH]2,water,298,-2.39,mol/L
CC(C)(C)C(=O)C1C(=O)C2=CC=CC=C2C1=O,water,298,-4.11,mol/L
O[S](=O)(=O)OCCOC1=C(Cl)C=C(Cl)C=C1,water,298,-0.06,mol/L
CC1=CC2=C(C=C1)C=C3C=CC=CC3=C2,water,298,-7.01,mol/L
CC1(C)SC2C(NC(=O)C3(N)CCCCC3)C(=O)N2C1C(O)=O,water,298,-1.04,mol/L
CC1=CC=CC(=C1)NC2=CC=CC=C2C(O)=O,water,298,-5.06,mol/L
CC1=C(C(=C(C=C1[N+]([O-])=O)[N+]([O-])=O)O)[N+]([O-])=O,water,298,-2.04,mol/L
CCC1=NC2=C(N=C1CC)C(=NC(=N2)N)N,water,298,-3.27,mol/L
CCC1=NC2=C(N=C1CC)C(=NC(=O)N2)N,water,298,-3.55,mol/L
CCC1=NC2=C(N=C1CC)C(=O)NC(=N2)N,water,298,-4.28,mol/L
CC1=CC=CC2=C1C=CC3=CC=CC=C23,water,298,-5.85,mol/L
NC1=CC2=CC3=CC=CC=C3C=C2C=C1,water,298,-5.17,mol/L
ClC1=CC=C(Cl)C2=C1C=C(Cl)C(=C2)Cl,water,298,-7.52,mol/L
CCC1=NC2=C(N=C1CC)C(=O)NC(=O)N2,water,298,-2.39,mol/L
CCCC(=O)OCSC1=NC=NC2=C1N=C[NH]2,water,298,-2.69,mol/L
COC1=C(OC2OC(CO)C(O)C(O)C2O)C=CC(=C1)\C=C\CO,water,298,-1.87,mol/L
ClC1=CC(=CC(=C1)Cl)C2=C(Cl)C=CC=C2,water,298,-6.3,mol/L
NC1=CC=CC(=C1)NC2=CC=CC=C2C(O)=O,water,298,-4.09,mol/L
OC(=O)COC1=C(Cl)C(=C(Cl)C(=C1Cl)Cl)Cl,water,298,-3.75,mol/L
ClC1=CC2=C(C(=CC=C2Cl)Cl)C(=C1)Cl,water,298,-7.51,mol/L
CCCCCCC(C(C)O)[N]1C=NC2=C1N=CN=C2N,water,298,-2.25,mol/L
COCC1(C)OC(=O)N(C1=O)C2=CC(=CC(=C2)Cl)Cl,water,298,-4.66,mol/L
NC(=O)C1=C[N](CC2=C(F)C=CC=C2F)N=N1,water,298,-3.5,mol/L
ClC1=CC=CC(=C1)N(C2CCOC2=O)C(=O)C3CC3,water,298,-2.69,mol/L
OC(=O)C1=CC=CC=C1NC2=CC(=CC=C2)O,water,298,-3.54,mol/L
COC(=O)C1CCCN1C(=O)COC(=O)C2=CC=CC=C2,water,298,-2.08,mol/L
OC(=O)C1=C(Cl)C=CC2=C1N=CC(=C2)Cl,water,298,-3.57,mol/L
COC1=C(C)C=C(C=C1)C(=O)C2=CC(=CC=C2)C,water,298,-5.08,mol/L
[NH]1C2=C(N=CN=C2)N=C1C3=CC=CC=C3,water,298,-3.06,mol/L
O=C(NNC(=O)C1=CC=NC=C1)C2=CC=CC=C2,water,298,-2.54,mol/L
OC1=C(C(=C(C=C1[N+]([O-])=O)[N+]([O-])=O)O)[N+]([O-])=O,water,298,-3.51,mol/L
BrC1=C(C=CC2=CC=CC=C12)N=C=S,water,298,-4.32,mol/L
CC(=O)NC1=CC=C(C=C1)[S](=O)(=O)NC(C)=O,water,298,-2.78,mol/L
OC1=C2C=CC=CC2=CC3=CC=CC=C13,water,298,-4.73,mol/L
FCCOC(=O)CC1=CC=C(C=C1)C2=CC=CC=C2,water,298,-5.01,mol/L
CC(COC1=CC=CC=C1)NC(C)C(O)C2=CC=C(O)C=C2,water,298,-1.53,mol/L
O=C(COC(=O)C1=CC=CC=C1)N(C2CCCCC2)C3CCCCC3,water,298,-5.06,mol/L
CN1C(=O)N(C)C2=C([N](C=N2)C(C)=O)C1=O,water,298,-1.4,mol/L
S=C(NNC1=CC=CC=C1)N=NC2=CC=CC=C2,water,298,-6.61,mol/L
CC(C(O)=O)C1=CC(=CC=C1)OC2=CC=CC=C2,water,298,-1.88,mol/L
CCCCC(=O)OCSC1=NC=NC2=C1N=C[NH]2,water,298,-3.1,mol/L
CCC1=CN=C(C2=NC(C)(C(C)C)C(=O)N2)C(=C1)C(O)=O,water,298,-2.32,mol/L
C1C2=CC=CC3=CC=C4C=CC=C1C4=C23,water,298,-5.24,mol/L
O=C(C1=CC=CC=C1)C2=CC=CC(=C2)N=C=S,water,298,-5.4,mol/L
CCOC(=O)CN(C(=O)CCl)C1=C(CC)C=CC=C1CC,water,298,-3.47,mol/L
OC(=O)C1=CC=CC=C1NC2=CC(=CC=C2)Cl,water,298,-5.3,mol/L
CC1=C(CC(O)=O)SC2=C1C=CC(=C2)Cl,water,298,-3.84,mol/L
NC1=CC2=C(C=C1)C=C(C=C2)[S](O)(=O)=O,water,298,-3.27,mol/L
OC1=CC(=C(C(=C1)O)C(=O)C2=CC=CC=C2)O,water,298,-1.87,mol/L
O=C(CC1=CC=CC=C1)NNC(=O)C2=CC=NC=C2,water,298,-2.47,mol/L
NC1=CC2=C(C=C1)C=CC(=C2)[S](O)(=O)=O,water,298,-3.05,mol/L
CC1=NC(=C(S1)C(=O)NC2=CC=CC=C2)C,water,298,-1.73,mol/L
ClC1=CC=C(OC2=C(Cl)C=CC=C2Cl)C=C1,water,298,-5.91,mol/L
CCCCCC(=O)OCSC1=NC=NC2=C1N=C[NH]2,water,298,-3.63,mol/L
NC1=CC=CC2=C1C=CC(=C2)[S](O)(=O)=O,water,298,-2.24,mol/L
CN(C)C(=O)OC1=CC(=N[N]1C2=CC=CC=C2)C,water,298,-2.09,mol/L
COC1=CC=CC(=C1)NC2=CC=CC=C2C(O)=O,water,298,-4.8,mol/L
ClC1=CC(=C(OC2=CC=CC=C2)C(=C1)Cl)Cl,water,298,-6.11,mol/L
COC1=CC=C2C3CC4=C5C(=C(OC)C=C4)OC1C25CCN3C,water,298,-2.66,mol/L
NC1=CC(=CC2=C1C=CC=C2)[S](O)(=O)=O,water,298,-2.34,mol/L
OC(=O)C1=C(C=CC=C1)C(=O)NC2=CC=CC=C2,water,298,-4.08,mol/L
CC(C)(C)C(=O)OCC(=O)C1(O)CCC2C3CCC4=CC(=O)C=CC4(C)C3C(O)CC12C,water,298,-4.58,mol/L
ClC1=CC=C(Cl)C(=C1Cl)OC2=CC=CC=C2,water,298,-5.95,mol/L
COC1=C(O)C2=C(CC3C4C=CC(=O)CC24CCN3C)C=C1,water,298,-1.87,mol/L
CC1=C(C=CC=C1)C(=O)NNC(=O)C2=CC=NC=C2,water,298,-2.73,mol/L
CCN1CCN2C(=O)C3=C(C=CC=C3)N=C2C1C,water,298,-2.5,mol/L
CCC(C)C1=C(OC(C)=O)C(=CC(=C1)[N+]([O-])=O)[N+]([O-])=O,water,298,-2.25,mol/L
CCC(=O)[N]1C=NC2=C1C(=O)N(C)C(=O)N2C,water,298,-1.1,mol/L
C1CN=C(CN(CC2=CC=CC=C2)C3=CC=CC=C3)N1,water,298,-2.6,mol/L
CC(=O)OCC(C(OC(C)=O)C1=CC=CC=C1)[N+]([O-])=O,water,298,-3.97,mol/L
NC1=CC2=C(C=C1)C(=CC=C2)[S](O)(=O)=O,water,298,-2.75,mol/L
OC(=O)C1=C(C=C(C=C1[N+]([O-])=O)[N+]([O-])=O)[N+]([O-])=O,water,298,-1.1,mol/L
NC1=CC2=C(C=CC=C2[S](O)(=O)=O)C=C1,water,298,-2.57,mol/L
CC12CCC3=C(C=CC4=C3C=CC(=C4)O)C1CCC2O,water,298,-4.64,mol/L
NC1=C(Br)C(=O)N(N=C1)C2=CC=CC=C2,water,298,-3.12,mol/L
CC(C1CC1)C(O)(C[N]2C=NC=N2)C3=CC=C(Cl)C=C3,water,298,-3.32,mol/L
CC(N(O)C(N)=O)C1=CC2=C(S1)C=CC=C2,water,298,-3.37,mol/L
NC1=CC=CC2=C1C=CC=C2[S](O)(=O)=O,water,298,-2.35,mol/L
CC(C)(C)CC(=O)OCC(=O)C1(O)CCC2C3CCC4=CC(=O)CCC4(C)C3C(O)CC12C,water,298,-5.51,mol/L
NC1=CC=C(C2=C1C=CC=C2)[S](O)(=O)=O,water,298,-2.91,mol/L
O=C1COC2(CCN(CCC3=C[NH]C4=C3C=CC=C4)CC2)CN1,water,298,-2.99,mol/L
CCNC(=O)C1=CC(=C(C=C1[N+]([O-])=O)[N+]([O-])=O)N2CC2,water,298,-3.13,mol/L
CSC(=O)C1(OC(C)=O)C(C)CC2C3CCC4=CC(=O)C=CC4(C)C3(F)C(O)CC12C,water,298,-6.22,mol/L
CC(=O)OC1=CC=C(NC(=O)C2=CC=CC=C2)C=C1,water,298,-4.14,mol/L
CC1CN(C)C(C)C2=NC3=C(C=CC=C3)C(=O)N12,water,298,-2.09,mol/L
NC1=CC=CC2=C1C(=CC=C2)[S](O)(=O)=O,water,298,-3.07,mol/L
CCC1CN2CCC1CC2C(O)C3=CC=NC4=C3C=CC=C4,water,298,-2.59,mol/L
OC(=O)C1=CC(=O)C2=C(O1)C=C3CCCCC3=C2,water,298,-1.05,mol/L
O=C(OC1=CC=CC(=C1)N=C=S)C2=CC=CC=C2,water,298,-4.85,mol/L
CN1C(=O)ON(C1=O)C2=CC(=C(Cl)C=C2)Cl,water,298,-2.42,mol/L
COC(=O)[N]1C=NC2=C1C(=O)N(C)C(=O)N2C,water,298,-1.24,mol/L
CC(C)CC1=CC=C(C=C1)C(C)C(=O)OCC(=O)N(C)CC(N)=O,water,298,-3.41,mol/L
CC(C)OC1=CC=CC(=C1)NC(=O)C2=C(C)C=CC=C2,water,298,-4.33,mol/L
CN1C(=O)N(C)C2=C([N](COC(C)=O)C=N2)C1=O,water,298,-1.83,mol/L
CCN(CC1=CC=NC=C1)C(=O)C(CO)C2=CC=CC=C2,water,298,-1.7,mol/L
O=C(OC1=CC=CC(=C1)N=C=S)C2=CC=CN=C2,water,298,-4.3,mol/L
CC[S](=O)(=O)C1=NN=C(S1)N(C)C(=O)NC,water,298,-1.95,mol/L
CN(C)C1=CC=C(C=C1)C(=O)C2=CC=C(C=C2)N(C)C,water,298,-2.83,mol/L
CCC1=CC=C(C=C1)C(C(Cl)Cl)C2=CC=C(CC)C=C2,water,298,-6.49,mol/L
CCCCCCCC(=O)OCSC1=NC=NC2=C1N=C[NH]2,water,298,-4.62,mol/L
CCCN1CCN2C(=O)C3=C(C=CC=C3)N=C2C1C,water,298,-2.31,mol/L
CC(CN1CC(=O)NC(=O)C1)N2CC(=O)NC(=O)C2,water,298,-1.27,mol/L
ClC1=CC=C(C=C1)C2=C(Cl)C(=CC(=C2)Cl)Cl,water,298,-6.77,mol/L
CCCC(=O)[N]1C=NC2=C1C(=O)N(C)C(=O)N2C,water,298,-1.53,mol/L
ClC1=CC(=CC=C1)C2=C(Cl)C(=C(Cl)C=C2)Cl,water,298,-6.77,mol/L
CC(=O)OCC(=O)C1(O)CCC2C3CCC4=CC(=O)C=CC4(C)C3C(=O)CC12C,water,298,-4.24,mol/L
ClC1=C(C=CC=C1)C2=CC(=C(Cl)C(=C2)Cl)Cl,water,298,-7.25,mol/L
CCCNC(=O)C1=CC(=C(C=C1[N+]([O-])=O)[N+]([O-])=O)N2CC2,water,298,-3.89,mol/L
ClC1=CC=C(C=C1Cl)C2=C(Cl)C=CC=C2Cl,water,298,-7.02,mol/L
ClC1=CC(=CC=C1)C2=C(Cl)C=C(Cl)C=C2Cl,water,298,-7.15,mol/L
CC12CCC3=C(C=CC4=C3C=CC(=C4)O)C1CCC2=O,water,298,-4.96,mol/L
ClC1=CC=C(C(=C1)Cl)C2=C(Cl)C(=CC=C2)Cl,water,298,-6.68,mol/L
OC(=O)C1CC[N]2C1=CC=C2C(=O)C3=CC=CC=C3,water,298,-1.65,mol/L
CC1=C(N2C(SC1)C(NC(=O)C(N)C3=CCC=CC3)C2=O)C(O)=O,water,298,-1.22,mol/L
CCOC(=O)OC[N]1C=NC2=C1C(=O)N(C)C(=O)N2C,water,298,-1.86,mol/L
CC(C)NC(=O)C1=CC(=C(C=C1[N+]([O-])=O)[N+]([O-])=O)N2CC2,water,298,-3.5,mol/L
ClC1=CC(=C(Cl)C(=C1)Cl)C2=CC=CC=C2Cl,water,298,-6.23,mol/L
CCOC(=O)[N]1C=NC2=C1C(=O)N(C)C(=O)N2C,water,298,-1.65,mol/L
CCN1CC(C)N2C(=O)C3=C(C=CC=C3)N=C2C1C,water,298,-2.46,mol/L
CC(=O)OC1=CC=C(NC(=O)NC2=CC=CC=C2)C=C1,water,298,-4.44,mol/L
CCC1NC(=O)C2=CC(=C(Cl)C=C2N1)[S](N)(=O)=O,water,298,-3.3,mol/L
CCC(=O)OC[N]1C=NC2=C1C(=O)N(C)C(=O)N2C,water,298,-2.3,mol/L
C[N]1C=NC2=C1C(=O)N(CCCCC(C)=O)C(=O)N2C,water,298,-0.56,mol/L
CO[P](=S)(OC)SCC1=NC(=NC(=N1)N)N,water,298,-3.07,mol/L
OCN1C(=O)CN(/N=C/C2=CC=C(O2)[N+]([O-])=O)C1=O,water,298,-2.91,mol/L
CC(=O)C1=CC=CC(=C1)NC2=CC=CC=C2C(O)=O,water,298,-4.86,mol/L
ClC1=CC=CC(=C1Cl)C2=C(Cl)C=CC=C2Cl,water,298,-6.3,mol/L
ClC1=CC=C(Cl)C(=C1Cl)C2=CC=CC=C2Cl,water,298,-6.3,mol/L
OCCN1C=CC(=O)C(=C1C(O)C2=CC=CC=C2)O,water,298,-2.82,mol/L
ClC1=C(Cl)C=C(OC2=CC=C(Cl)C(=C2)Cl)C=C1,water,298,-6.98,mol/L
CCC1=CC=CC2=C1[NH]C3=C2CCOC3(CC)CC(O)=O,water,298,-3.31,mol/L
C[S](=O)(=O)NC1=NN=C(S1)[S](N)(=O)=O,water,298,-1.68,mol/L
CNC1CCC(C2=CC(=C(Cl)C=C2)Cl)C3=C1C=CC=C3,water,298,-5.23,mol/L
N#CC(=NNC1=CC=C(C=C1)N=NC2=CC=CC=C2)C#N,water,298,-4.92,mol/L
ClC1=CC=C(OC2=CC(=C(Cl)C(=C2)Cl)Cl)C=C1,water,298,-7.35,mol/L
ClC1=CC(=CC(=C1)OC2=CC=C(Cl)C(=C2)Cl)Cl,water,298,-7.32,mol/L
CCCCC(=O)[N]1C=NC2=C1C(=O)N(C)C(=O)N2C,water,298,-2.12,mol/L
ClC(Cl)C(C1=CC=C(Cl)C=C1)C2=C(Cl)C=CC=C2,water,298,-6.51,mol/L
NC(CC1=CC(=C(O)C=C1)O)C(=O)OCC2=CC=CC=C2,water,298,-1.81,mol/L
ClC1=CC=C(OC2=CC(=C(Cl)C=C2)Cl)C(=C1)Cl,water,298,-7.0,mol/L
CC(CCC1=CC=CC=C1)NCC(O)C2=CC(=C(O)C=C2)C(N)=O,water,298,-2.08,mol/L
ClC1=CC=C(OC2=CC(=C(Cl)C=C2Cl)Cl)C=C1,water,298,-7.04,mol/L
[O-][N+](=O)C1=CC=C(OC2=C(Cl)C=C(Cl)C=C2)C=C1,water,298,-5.45,mol/L
[O-][N+](=O)C1=C(Cl)C2=C(C=CC=C2)C(=C1)[N+]([O-])=O,water,298,-5.4,mol/L
CO[P](=S)(NC(C)C)OC1=C(Cl)C=C(Cl)C=C1,water,298,-4.8,mol/L
CC(C)CNC(=O)C1=CC(=C(C=C1[N+]([O-])=O)[N+]([O-])=O)N2CC2,water,298,-3.85,mol/L
IC1=C(C=CC=C1)C(=O)NC2=CC=CC=C2,water,298,-4.21,mol/L
ClC1=CC=C(OC2=CC(=CC(=C2)Cl)Cl)C(=C1)Cl,water,298,-7.14,mol/L
ClC1=CC=C(Cl)C(=C1)OC2=CC=C(Cl)C(=C2)Cl,water,298,-7.07,mol/L
ClC1=CC=C(OC2=CC=C(Cl)C(=C2Cl)Cl)C=C1,water,298,-7.01,mol/L
CCC(=O)OCC1OC(CC1O)N2C=C(I)C(=O)NC2=O,water,298,-2.46,mol/L
ClC1=CC=C(OC2=CC(=CC(=C2Cl)Cl)Cl)C=C1,water,298,-7.14,mol/L
ClC1=C(Cl)C=C(OC2=CC=CC(=C2Cl)Cl)C=C1,water,298,-6.9,mol/L
CN1C(=O)N(C)C2=C([N](COC(=O)C(C)(C)C)C=N2)C1=O,water,298,-2.17,mol/L
ClC1=CC=CC(=C1)OC2=CC(=C(Cl)C=C2Cl)Cl,water,298,-7.27,mol/L
ClC1=CC=C(OC2=C(Cl)C=C(Cl)C=C2Cl)C=C1,water,298,-6.83,mol/L
OC(=O)C1=CC=CC=C1NC2=CC(=CC=C2)[N+]([O-])=O,water,298,-6.43,mol/L
ClC1=CC=CC(=C1)OC2=CC=C(Cl)C(=C2Cl)Cl,water,298,-7.09,mol/L
ClC1=CC=C(OC2=C(Cl)C=CC(=C2)Cl)C(=C1)Cl,water,298,-6.77,mol/L
COC1=CC=C(OC2=CC=C(NC(=O)N(C)C)C=C2)C=C1,water,298,-4.16,mol/L
CCCOC(=O)[N]1C=NC2=C1C(=O)N(C)C(=O)N2C,water,298,-1.45,mol/L
ClC1=C(Cl)C=C(OC2=C(Cl)C=CC=C2Cl)C=C1,water,298,-6.56,mol/L
ClC1=CC(=C(OC2=CC=CC(=C2Cl)Cl)C=C1)Cl,water,298,-6.65,mol/L
CCCN1CC(C)N2C(=O)C3=C(C=CC=C3)N=C2C1C,water,298,-2.24,mol/L
ClC1=CC=C(OC2=C(Cl)C=CC(=C2Cl)Cl)C=C1,water,298,-6.64,mol/L
OC(=O)C1(O)C2=C(C=CC=C2)C3=C1C=C(Cl)C=C3,water,298,-4.08,mol/L
CC(C)(C)NC(=O)C1=CC(=C(C=C1[N+]([O-])=O)[N+]([O-])=O)N2CC2,water,298,-3.17,mol/L
CCCC(=O)OC[N]1C=NC2=C1C(=O)N(C)C(=O)N2C,water,298,-1.86,mol/L
ClC1=C(OC2=CC(=C(Cl)C=C2Cl)Cl)C=CC=C1,water,298,-7.0,mol/L
NC(CC1=CC(=C(O)C(=C1)I)I)C(O)=O,water,298,-2.86,mol/L
ClC1=CC=C(OC2=C(Cl)C=CC=C2)C(=C1Cl)Cl,water,298,-6.74,mol/L
CC1CN(CCO1)[S](=O)(=O)NC(=O)NCC2CC3CC2C=C3,water,298,-2.26,mol/L
ClC1=C(Cl)C(=C(Cl)C(=C1)OC2=CC=CC=C2)Cl,water,298,-7.52,mol/L
CCN(CC)C(=O)C1=CC(=C(C=C1[N+]([O-])=O)[N+]([O-])=O)N2CC2,water,298,-2.59,mol/L
COC(=O)C1(O)C2=C(C=CC=C2)C3=C1C=C(Cl)C=C3,water,298,-4.18,mol/L
OC1C(O)C(O)C2C(NC(=O)C3=C(O)C4=C(OCO4)C=C23)C1O,water,298,-3.8,mol/L
ClC1=C(Cl)C(=C(OC2=CC=CC=C2)C(=C1)Cl)Cl,water,298,-7.06,mol/L
CC1CCC2=CC(=CC3=C2N1C=C(C(O)=O)C3=O)F,water,298,-3.74,mol/L
ClC1=C(Cl)C(=C(Cl)C(=C1)Cl)OC2=CC=CC=C2,water,298,-7.02,mol/L
O=C1OC(=NC2=C1C=CC=C2)C3=CC=CC=C3,water,298,-4.61,mol/L
CCCCOC(=O)[N]1C=NC2=C1C(=O)N(C)C(=O)N2C,water,298,-1.93,mol/L
CCCCC(=O)OC[N]1C=NC2=C1C(=O)N(C)C(=O)N2C,water,298,-2.37,mol/L
CN(CC(=O)NC1=NN=C(S1)[S](N)(=O)=O)C(N)=N,water,298,-1.14,mol/L
CCC(C)C1=C(OC(=O)C=C(C)C)C(=CC(=C1)[N+]([O-])=O)[N+]([O-])=O,water,298,-5.51,mol/L
OC(=O)CCC(=O)OCN1C(=O)OC2=CC=C(Cl)C=C12,water,298,-3.41,mol/L
CCO[P](=S)(OC(C)C)OC1=CN=C(N=C1)C(C)(C)C,water,298,-4.76,mol/L
CCC1COC(C[N]2C=NC=N2)(O1)C3=CC=C(Cl)C=C3Cl,water,298,-3.61,mol/L
C=CC1CN2CCC1CC2C(=O)C3=CC=NC4=C3C=CC=C4,water,298,-3.19,mol/L
[O-][N+](=O)C1=C(C=C(C(=O)N2CCCCC2)C(=C1)[N+]([O-])=O)N3CC3,water,298,-3.17,mol/L
ClC1=CC(=CC(=C1)Cl)C2=CC(=C(Cl)C=C2Cl)Cl,water,298,-7.47,mol/L
ClC1=CC(=C(Cl)C=C1)C2=CC(=C(Cl)C(=C2)Cl)Cl,water,298,-7.32,mol/L
CC1=C2C=CC3=C(C=CC=C3)C2=CC4=C1CCCC4,water,298,-6.75,mol/L
ClC1=CC(=C(C(=C1)Cl)C2=CC=C(Cl)C(=C2)Cl)Cl,water,298,-7.91,mol/L
CCCCCC(=O)OC[N]1C=NC2=C1C(=O)N(C)C(=O)N2C,water,298,-2.64,mol/L
CC(=O)OCSC1=NC=NC2=C1N=C[N]2COC(C)=O,water,298,-2.54,mol/L
ClC1=CC=CC(=C1Cl)C2=CC(=C(Cl)C(=C2)Cl)Cl,water,298,-7.41,mol/L
[O-][N+](=O)C1=C(C=C(C(=O)N2CCOCC2)C(=C1)[N+]([O-])=O)N3CC3,water,298,-2.89,mol/L
ClC1=CC(=C(C(=C1)Cl)C2=CC(=CC(=C2)Cl)Cl)Cl,water,298,-7.92,mol/L
ClC1=CC=C(C=C1)C2=C(Cl)C(=C(Cl)C=C2Cl)Cl,water,298,-7.95,mol/L
ClC1=CC=C(C(=C1)Cl)C2=C(Cl)C(=CC(=C2)Cl)Cl,water,298,-7.82,mol/L
CN1N=C(SC1=N[S](C)(=O)=O)[S](N)(=O)=O,water,298,-2.05,mol/L
COC(=O)C1=C(OC2OC(COC3OCC(O)C(O)C3O)C(O)C(O)C2O)C=CC=C1,water,298,-0.74,mol/L
ClC1=CC=C(C=C1)C2=C(Cl)C(=CC(=C2Cl)Cl)Cl,water,298,-7.88,mol/L
ClC1=CC=CC(=C1Cl)C2=CC=C(Cl)C(=C2Cl)Cl,water,298,-7.05,mol/L
ClC1=CC(=CC(=C1)Cl)C2=C(Cl)C(=CC=C2Cl)Cl,water,298,-7.95,mol/L