Solute,Solvent,Temperature_K,Solubility,Units
c1cc(C)ccc1CC,water,298,-3.11,mol/L
c1ccccc1C(C)C,water,298,-3.27,mol/L
c1ccccc1CCCC,water,298,-4.06,mol/L
c1cc(CC)ccc1CC,water,298,-3.75,mol/L
c1cc(C)ccc1C(C)C,water,298,-3.77,mol/L
c1ccccc1C(C)(C)C,water,298,-3.66,mol/L
c1ccccc1C(C)CC,water,298,-3.89,mol/L
c1c(C)c(C)c(C)c(C)c1C,water,298,-4.0,mol/L
c1ccccc1CCCCC,water,298,-4.64,mol/L
c1ccccc1C(CC)(C)C,water,298,-4.15,mol/L
c1ccccc1C=C,water,298,-2.82,mol/L
c1ccccc1c2ccccc2,water,298,-4.31,mol/L
c1ccccc1Cc2ccccc2,water,298,-4.17,mol/L
c(c(c(c1ccc2)c2)ccc3)(c3)C1,water,298,-4.91,mol/L
c1ccc2c3ccccc3Cc2c1C,water,298,-5.22,mol/L
c1ccc2ccccc2c1,water,298,-3.6,mol/L
Cc1ccc2ccccc2c1,water,298,-3.77,mol/L
c1ccc2ccccc2c1C,water,298,-3.7,mol/L
c1ccc2c(C)cccc2c1C,water,298,-4.74,mol/L
Cc1c(C)cc2ccccc2c1,water,298,-4.72,mol/L
c1ccc2cccc3c2c1C=C3,water,298,-3.96,mol/L
c1cc(C)c2ccccc2c1C,water,298,-4.14,mol/L
Cc1ccc2cc(C)ccc2c1,water,298,-4.89,mol/L
c1ccc2cccc3c2c1CC3,water,298,-4.63,mol/L
c1cc(C)c2c(C)cccc2c1C,water,298,-4.92,mol/L
c(c(c(c(c1)ccc2)c2)ccc3)(c1)c3,water,298,-5.26,mol/L
c(c(c(c(c1ccc2)c2)C)ccc3)(c3)c1,water,298,-5.89,mol/L
Cc1cc2cc3ccccc3cc2cc1,water,298,-6.96,mol/L
c(c(c(cc1)ccc2)c2cc3)(c1ccc4)c34,water,298,-6.19,mol/L
c(c(ccc1)ccc2)(c1c(c3ccc4)c4)c23,water,298,-6.0,mol/L
c1c(CC3)c2c(C3)ccc(CC4)c2c(C4)c1,water,298,-5.96,mol/L
C3c1ccccc1c4ccc2ccccc2c34,water,298,-6.68,mol/L
c1ccc2c3cc4ccccc4cc3Cc2c1,water,298,-8.04,mol/L
c1ccc2c3ccccc3c4ccccc4c2c1,water,298,-6.74,mol/L
c(c(c(cc1)ccc2)c2cc3)(c3cc(c4ccc5)c5)c14,water,298,-8.19,mol/L
c(c(c(c(c1)ccc2)c2)c(c(c3ccc4)c4)C)(c3C)c1,water,298,-7.02,mol/L
c1ccc2c(c1)c4cccc5ccc3cccc2c3c45,water,298,-7.8,mol/L
c(c(ccc1)ccc2)(c1c(c(c(cc3)ccc4)c45)c3)c25,water,298,-8.8,mol/L
c16cccc2ccc3ccc4ccc5cccc6c5c4c3c12,water,298,-9.03,mol/L
s(c(c(c1cccc2)ccc3)c3)c12,water,298,-4.38,mol/L
n(c(c(ccc1)cc2cccc3)c1)c23,water,298,-3.67,mol/L
c1ccc2nc3cccc(N)c3cc2c1,water,298,-4.22,mol/L
Nc3ccc2cc1ccccc1cc2c3,water,298,-5.17,mol/L
c1cc2cc3cc(CC)ccc3cc2cc1,water,298,-6.89,mol/L
c12ccccc1cc3c4ccccc4c5c3c2ccc5,water,298,-8.23,mol/L
c1ccc4c(c1)ccc5c2cccc3cccc(c23)c45,water,298,-8.0,mol/L
c2ccc1cc3c(cc1c2)c4cccc5cccc3c45,water,298,-8.49,mol/L
c(c(c(c(c1)ccc2)c2)cc(c3c(c(c4)ccc5)c5)c4)(c1)c3,water,298,-8.66,mol/L
CI,water,298,-1.0,mol/L
ClCCl,water,298,-0.63,mol/L
BrCCl,water,298,-0.89,mol/L
ClC(Cl)Cl,water,298,-1.17,mol/L
ClC(Br)Cl,water,298,-1.54,mol/L
ClC(Br)Br,water,298,-1.9,mol/L
BrC(Br)Br,water,298,-1.91,mol/L
CCBr,water,298,-1.09,mol/L
CCI,water,298,-1.6,mol/L
ClC(Cl)C,water,298,-1.29,mol/L
ClCCBr,water,298,-1.32,mol/L
BrCCBr,water,298,-1.68,mol/L
ClC(Cl)(Cl)C,water,298,-2.0,mol/L
ClC(Cl)CCl,water,298,-1.48,mol/L
ClC(Cl)(Cl)CCl,water,298,-2.18,mol/L
ClC(Cl)(Cl)C(Cl)Cl,water,298,-2.6,mol/L
ClC(Cl)(F)C(F)(F)Cl,water,298,-3.04,mol/L
ClC(Cl)(Cl)C(Cl)(Cl)Cl,water,298,-3.67,mol/L
CC(Cl)C,water,298,-1.41,mol/L
CCCBr,water,298,-1.73,mol/L
CC(Br)C,water,298,-1.59,mol/L
CCCI,water,298,-2.29,mol/L
ClCCCCl,water,298,-1.62,mol/L
ClCC(Cl)C,water,298,-1.6,mol/L
BrCCCCl,water,298,-1.85,mol/L
BrCCCBr,water,298,-2.08,mol/L
BrCC(Br)CCl,water,298,-2.38,mol/L
ClCC(Cl)CCl,water,298,-1.92,mol/L
CCCCCl,water,298,-2.03,mol/L
CC(Cl)CC,water,298,-1.96,mol/L
ICCCC,water,298,-2.96,mol/L
CC(C)CBr,water,298,-2.43,mol/L
ClC(Cl)CCC,water,298,-2.4,mol/L
CCCCCCl,water,298,-2.73,mol/L
CC(Cl)CCC,water,298,-2.63,mol/L
CC(C)(Cl)CC,water,298,-2.51,mol/L
CC(C)(Cl)C(Cl)C,water,298,-2.69,mol/L
CCCCCCCl,water,298,-3.12,mol/L
CCCCCBr,water,298,-3.07,mol/L
CCCCCCBr,water,298,-3.81,mol/L
C1CCCCC1Br,water,298,-2.3,mol/L
FC(F)(F)C(Cl)Br,water,298,-1.71,mol/L
FC(F)(C(F)(F)Cl)Cl,water,298,-3.12,mol/L
C(C(C(C(C1Cl)Cl)Cl)Cl)(C1Cl)Cl,water,298,-4.59,mol/L
CCCCCCCCl,water,298,-3.99,mol/L
ClC(Cl)=C,water,298,-1.64,mol/L
ClC=CCl,water,298,-1.3,mol/L
IC=CI,water,298,-3.22,mol/L
ClC=C(Cl)Cl,water,298,-1.96,mol/L
ClC(Cl)=C(Cl)Cl,water,298,-2.54,mol/L
C=CCCl,water,298,-1.36,mol/L
ClC2C1OC1C3C2C4(Cl)C(=C(Cl)C3(Cl)C4(Cl)Cl)Cl,water,298,-6.29,mol/L
ClC3=C(Cl)C4(Cl)C2C1CC(C=C1)C2C3(Cl)C4(Cl)Cl,water,298,-7.33,mol/L
ClC4=C(Cl)C5(Cl)C3C1CC(C2OC12)C3C4(Cl)C5(Cl)Cl,water,298,-6.18,mol/L
C=CCBr,water,298,-1.5,mol/L
C(=C(C(=C1Cl)Cl)Cl)(C1(Cl)Cl)Cl,water,298,-5.18,mol/L
ClC(=C(C=C(Cl)Cl)Cl)Cl,water,298,-4.23,mol/L
c1ccccc1F,water,298,-1.8,mol/L
c1ccccc1Cl,water,298,-2.38,mol/L
c1cc(I)ccc1F,water,298,-3.13,mol/L
c1cc(Cl)ccc1Cl,water,298,-3.27,mol/L
c1cccc(Cl)c1Cl,water,298,-3.05,mol/L
c1ccc(Cl)cc1Cl,water,298,-3.04,mol/L
c1ccc(Cl)cc1Br,water,298,-3.21,mol/L
c1cc(Cl)ccc1Br,water,298,-3.63,mol/L
c1cc(Br)ccc1Br,water,298,-4.07,mol/L
c1cccc(Br)c1Br,water,298,-3.5,mol/L
c1cc(Cl)cc(Cl)c1Cl,water,298,-3.59,mol/L
c1ccc(Cl)c(Cl)c1Cl,water,298,-4.0,mol/L
c1c(Cl)cc(Cl)cc1Cl,water,298,-4.48,mol/L
c1ccc(Br)c(Br)c1Br,water,298,-5.04,mol/L
c1c(F)cc(F)c(F)c1F,water,298,-2.31,mol/L
c1c(F)c(F)cc(F)c1F,water,298,-2.38,mol/L
c1c(Cl)cc(Cl)c(Cl)c1Cl,water,298,-4.63,mol/L
c1cc(Cl)c(Cl)c(Cl)c1Cl,water,298,-4.57,mol/L
c1ccccc1I,water,298,-2.78,mol/L
c1cc(Br)ccc1C,water,298,-3.19,mol/L
c1cc(F)ccc1CCl,water,298,-2.54,mol/L
c1cc(F)ccc1F,water,298,-1.97,mol/L
c1ccc(Br)cc1C,water,298,-3.52,mol/L
c1cccc(Cl)c1C,water,298,-3.52,mol/L
c1ccccc1CCl,water,298,-2.39,mol/L
c1cc(Cl)ccc1C,water,298,-3.08,mol/L
c1ccccc1c2c(Cl)cccc2,water,298,-4.54,mol/L
c1ccccc1c2cc(Cl)ccc2,water,298,-4.88,mol/L
c1cc(Cl)ccc1c2ccc(Cl)cc2,water,298,-6.56,mol/L
c1cccc(Cl)c1c2c(Cl)cccc2,water,298,-5.27,mol/L
c1ccc(Cl)cc1c2cc(Cl)ccc2,water,298,-5.8,mol/L
c1ccccc1c2cc(Cl)c(Cl)cc2,water,298,-6.39,mol/L
c1ccccc1c2c(Cl)cc(Cl)cc2,water,298,-5.25,mol/L
c1ccccc1c2c(Cl)cccc2Cl,water,298,-5.21,mol/L
c1ccccc1c2c(Cl)cc(Cl)c(Cl)c2,water,298,-6.27,mol/L
c1cc(Cl)ccc1c2c(Cl)ccc(Cl)c2,water,298,-6.25,mol/L
c1ccccc1c2c(Cl)cc(Cl)cc2Cl,water,298,-6.14,mol/L
c1ccc(Cl)cc1c2c(Cl)ccc(Cl)c2,water,298,-6.01,mol/L
c1cc(Cl)ccc1c2c(Cl)c(Cl)ccc2,water,298,-6.26,mol/L
c1cc(Cl)ccc1c2c(Cl)cc(Cl)cc2,water,298,-6.21,mol/L
c1ccccc1c2c(Cl)c(Cl)ccc2Cl,water,298,-6.29,mol/L
c1ccc(Cl)c(Cl)c1c2c(Cl)c(Cl)ccc2,water,298,-7.28,mol/L
c1cc(Cl)c(Cl)cc1c2c(Cl)cc(Cl)cc2,water,298,-7.8,mol/L
c1ccc(Cl)c(Cl)c1c2c(Cl)ccc(Cl)c2,water,298,-6.47,mol/L
c1cc(Cl)cc(Cl)c1c2c(Cl)ccc(Cl)c2,water,298,-6.57,mol/L
c1c(Cl)ccc(Cl)c1c2c(Cl)ccc(Cl)c2,water,298,-7.0,mol/L
c1cc(Cl)c(Cl)cc1c2c(Cl)ccc(Cl)c2,water,298,-7.25,mol/L
c1cc(Cl)cc(Cl)c1c2c(Cl)cc(Cl)cc2,water,298,-6.51,mol/L
c1cc(Cl)c(Cl)cc1c2c(Cl)c(Cl)c(Cl)cc2,water,298,-7.05,mol/L
Clc1cccc(Cl)c1c2c(Cl)cc(Cl)cc2Cl,water,298,-7.32,mol/L
c1cc(Cl)c(Cl)cc1c2c(Cl)cc(Cl)c(Cl)c2,water,298,-7.39,mol/L
c1c(Cl)c(Cl)c(Cl)c(Cl)c1c2c(Cl)cccc2,water,298,-7.21,mol/L
Clc1cc(Cl)c(Cl)c(Cl)c1c2c(Cl)cccc2,water,298,-7.43,mol/L
c1c(Cl)c(Cl)cc(Cl)c1c2c(Cl)cc(Cl)c(Cl)c2,water,298,-8.56,mol/L
Clc1cc(Cl)c(Cl)cc1c2c(Cl)c(Cl)ccc2Cl,water,298,-8.65,mol/L
Clc1cc(Cl)c(Cl)cc1c2c(Cl)c(Cl)cc(Cl)c2,water,298,-8.6,mol/L
c1cc(Cl)c(Cl)c(Cl)c1c2c(Cl)cc(Cl)c(Cl)c2,water,298,-8.32,mol/L
Clc1c(Cl)cc(Cl)c(Cl)c1c2c(Cl)ccc(Cl)c2,water,298,-7.42,mol/L
Clc1c(Cl)cc(Cl)cc1c2c(Cl)cc(Cl)cc2Cl,water,298,-8.71,mol/L
c1cc(Cl)c(Cl)cc1c2c(Cl)c(Cl)c(Cl)c(Cl)c2,water,298,-7.82,mol/L
c1cc(Cl)c(Cl)cc1c2c(Cl)c(Cl)c(Cl)cc2Cl,water,298,-7.66,mol/L
c1ccc(Cl)c(Cl)c1c2c(Cl)c(Cl)c(Cl)c(Cl)c2,water,298,-8.42,mol/L
Clc1cc(Cl)c(Cl)c(Cl)c1c2c(Cl)cc(Cl)c(Cl)c2,water,298,-7.92,mol/L
c1cc(Cl)c(Cl)c(Cl)c1c2c(Cl)c(Cl)c(Cl)cc2Cl,water,298,-8.3,mol/L
c1c(Cl)ccc(Cl)c1c2c(Cl)c(Cl)c(Cl)c(Cl)c2Cl,water,298,-8.94,mol/L
c1c(Cl)c(Cl)c(Cl)c(Cl)c1c2c(Cl)c(Cl)c(Cl)c(Cl)c2,water,298,-9.16,mol/L
c1c(Cl)c(Cl)c(Cl)c(Cl)c1c2c(Cl)c(Cl)c(Cl)c(Cl)c2Cl,water,298,-10.26,mol/L
Clc1c(Cl)c(Cl)c(Cl)c(Cl)c1c2c(Cl)c(Cl)cc(Cl)c2Cl,water,298,-10.41,mol/L
Clc1c(Cl)c(Cl)c(Cl)c(Cl)c1c2c(Cl)c(Cl)c(Cl)c(Cl)c2Cl,water,298,-11.62,mol/L
ClC(Cl)=C(c1ccc(Cl)cc1)c2ccc(Cl)cc2,water,298,-6.9,mol/L
c(c(ccc1Cl)ccc2)(c2)c1,water,298,-4.14,mol/L
c1ccc2ccccc2c1Cl,water,298,-3.93,mol/L
c1ccc2ccccc2c1Br,water,298,-4.35,mol/L
CCCCO,water,298,0.0,mol/L
CCC(O)C,water,298,0.43,mol/L
OCC(C)C,water,298,0.04,mol/L
CCCCCO,water,298,-0.6,mol/L
CCC(O)CC,water,298,-0.24,mol/L
CC(O)(CC)C,water,298,0.08,mol/L
CCC(C)CO,water,298,-0.47,mol/L
OCCC(C)C,water,298,-0.52,mol/L
OC(C(C)C)C,water,298,-0.2,mol/L
CCCCCCO,water,298,-1.24,mol/L
CCC(O)CCC,water,298,-0.8,mol/L
CC(O)CCCC,water,298,-0.89,mol/L
CCC(O)C(C)C,water,298,-0.7,mol/L
OC(CC(C)C)C,water,298,-0.8,mol/L
OC(CCC)(C)C,water,298,-0.49,mol/L
OCC(CCC)C,water,298,-1.11,mol/L
CCC(C)(C)CO,water,298,-1.04,mol/L
OCCC(C)(C)C,water,298,-0.5,mol/L
OCC(CC)CC,water,298,-1.17,mol/L
CC(O)C(C)CC,water,298,-0.72,mol/L
OC(CC)(CC)C,water,298,-0.38,mol/L
CC(O)(C)C(C)C,water,298,-0.41,mol/L
C1CCCCC1O,water,298,-0.44,mol/L
OCCCCCCC,water,298,-1.81,mol/L
CCCCC(O)CC,water,298,-1.47,mol/L
CCCC(O)CCC,water,298,-1.4,mol/L
CC(O)(C)CC(C)C,water,298,-0.92,mol/L
OCC(C)(C)CCC,water,298,-1.52,mol/L
OCCCC(C)(C)C,water,298,-1.55,mol/L
CC(O)CCC(C)C,water,298,-1.38,mol/L
CCCCC(O)(C)C,water,298,-1.08,mol/L
CC(C)(C)C(O)CC,water,298,-1.15,mol/L
CCC(O)(C)CCC,water,298,-1.0,mol/L
CC(O)(C)C(C)CC,water,298,-0.89,mol/L
CC(C)C(C)(O)CC,water,298,-0.85,mol/L
OC(CC)(CC)CC,water,298,-0.85,mol/L
OCCCCCCCC,water,298,-2.39,mol/L
OC(CCCCCC)C,water,298,-2.09,mol/L
OCC(CCCC)CC,water,298,-2.11,mol/L
CCCCC(C)C(C)O,water,298,-1.72,mol/L
CC(C)(C)C(O)(C)CC,water,298,-1.27,mol/L
CC(O)(C)CCCCC,water,298,-1.72,mol/L
c1ccccc1CCO,water,298,-0.74,mol/L
OC(c(cccc1)c1)c(cccc2)c2,water,298,-2.55,mol/L
OCCCCCCCCCCCC,water,298,-4.67,mol/L
OCCCc(cccc1)c1,water,298,-1.38,mol/L
OCCOc(cccc1)c1,water,298,-0.71,mol/L
OCCCCCCCCC,water,298,-3.01,mol/L
OC(CCC(C1)C)C1,water,298,-0.88,mol/L
c1c(Cl)c(CO)c(Cl)cc1,water,298,-2.1,mol/L
Oc(cccc1)c1,water,298,0.0,mol/L
Oc(cccc1O)c1,water,298,0.81,mol/L
c1cc(O)ccc1O,water,298,-0.17,mol/L
Oc(c(ccc1)C)c1,water,298,-0.62,mol/L
c1ccccc1CO,water,298,-0.4,mol/L
c1cc(C)ccc1O,water,298,-0.7,mol/L
OCc(c(O)ccc1)c1,water,298,-0.29,mol/L
OC(c1ccccc1)C,water,298,-0.92,mol/L
c1cc(C)cc(C)c1O,water,298,-1.19,mol/L
c1c(C)cc(C)cc1O,water,298,-1.4,mol/L
Oc(ccc(c1)C(C)(C)C)c1,water,298,-2.41,mol/L
Oc(ccc(c(cccc1)c1)c2)c2,water,298,-3.48,mol/L
Oc(ccc(c1)C(c(ccc(O)c2)c2)(C)C)c1,water,298,-2.82,mol/L
Oc(c(c(ccc1)cc2)c1)c2,water,298,-2.22,mol/L
Oc(c(c(c(O)cc1)cc2)c1)c2,water,298,-2.92,mol/L
Oc(c(ccc1)CC)c1,water,298,-1.36,mol/L
Oc(c(c(cccc1)c1)ccc2)c2,water,298,-2.39,mol/L
CCC=O,water,298,0.58,mol/L
CCCCC=O,water,298,-0.85,mol/L
O=CCCCCC,water,298,-1.3,mol/L
O=CCCCCCC,water,298,-1.7,mol/L
O=CCCCCCCC,water,298,-2.36,mol/L
O=CC=C,water,298,0.57,mol/L
O=CC=CC,water,298,0.32,mol/L
O=Cc(cccc1)c1,water,298,-1.19,mol/L
O=Cc(ccc(OCO1)c12)c2,water,298,-1.63,mol/L
O=C(CC)C,water,298,0.52,mol/L
O=C(CCC)C,water,298,-0.19,mol/L
O=C(CCCC)C,water,298,-0.8,mol/L
O=C(CC(C)C)C,water,298,-1.42,mol/L
O=C(CCCCC)C,water,298,-1.42,mol/L
O=C(CCC)CCC,water,298,-1.3,mol/L
O=C(CCCCCC)C,water,298,-2.05,mol/L
O=C(CCCC)CCCC,water,298,-2.59,mol/L
O=C(C=C)CCC,water,298,-0.83,mol/L
O=C(C=C(CC1(C)C)C)C1,water,298,-1.06,mol/L
O=C(CCC(C)C)C,water,298,-1.33,mol/L
O=C(c(cccc1)c1)CC,water,298,-1.83,mol/L
CC(=O)CC(=O)C,water,298,0.22,mol/L
O=C(CCCCCCCC)C,water,298,-3.31,mol/L
O=C(C(C(C(C(C(C(C(=CC(=O)C1)C2)(C1)C)C3)C2)C4)(C3)C)C4)C,water,298,-4.43,mol/L
O=C(c(cccc1)c1)C,water,298,-1.28,mol/L
O=C(c(c(C(=O)c1cccc2)ccc3)c3)c12,water,298,-5.19,mol/L
CC(=O)O,water,298,1.22,mol/L
OC(=O)C(=O)O,water,298,0.38,mol/L
CCCC(=O)O,water,298,-0.19,mol/L
O=C(O)CCCC(=O)O,water,298,1.0,mol/L
O=C(O)CCCCC,water,298,-1.06,mol/L
O=C(O)CCCCC(=O)O,water,298,-0.82,mol/L
O=C(O)CCCCCCC,water,298,-2.3,mol/L
O=C(O)CCCCCCCCCCC,water,298,-4.62,mol/L
O=C(O)C(=C)C,water,298,0.01,mol/L
O=C(O)C=CC=CC,water,298,-1.77,mol/L
O=C(O)c(cccc1)c1,water,298,-1.55,mol/L
c1cc(C)ccc1C(=O)O,water,298,-2.6,mol/L
c1cccc(C)c1C(=O)O,water,298,-2.06,mol/L
O=C(O)Cc(cccc1)c1,water,298,-0.89,mol/L
O=C(O)c(c(ccc1)C(=O)O)c1,water,298,-2.11,mol/L
O=C(O)CCCCCCCCCCCCCCC,water,298,-6.81,mol/L
O=C(O)C(O)(c(cccc1)c1)c(cccc2)c2,water,298,-2.21,mol/L
O=C(OC(C1C(C2(CC(O)(C3=C)CC4)C3)C(=O)O)(C24)C=CC5O)C15C,water,298,-1.84,mol/L
O=C(O)C(C)C,water,298,0.28,mol/L
O=C(O)C(CC)CC,water,298,-0.81,mol/L
CCCC(CCC)C(O)=O,water,298,-1.86,mol/L
O=C(O)C(CCCC1)C1,water,298,-1.45,mol/L
O=C(O)COc(cccc1)c1,water,298,-1.1,mol/L
O=C(O)CCCCCCCCCC,water,298,-3.55,mol/L
O=C(O)CCCCCCCCC=C,water,298,-3.4,mol/L
O=C(NCC(=O)O)c(cccc1)c1,water,298,-1.68,mol/L
OC(=O)c1ccsc1,water,298,-1.47,mol/L
O=C(O)C(OC=C1)=C1,water,298,-0.48,mol/L
O=COC,water,298,0.58,mol/L
O=C(OC)C,water,298,0.52,mol/L
O=C(OCC)C,water,298,-0.04,mol/L
O=COCCC,water,298,-0.49,mol/L
O=C(OC)CC,water,298,-0.14,mol/L
O=C(OCCC)C,water,298,-0.72,mol/L
O=C(OC)CCC,water,298,-0.82,mol/L
O=COCC(C)C,water,298,-1.01,mol/L
O=C(OC(C)C)C,water,298,-0.55,mol/L
O=C(OCCCC)C,water,298,-1.24,mol/L
O=C(OC)CCCC,water,298,-1.36,mol/L
O=C(OCC(C)C)C=C,water,298,-1.21,mol/L
O=C(OCC)CC(=O)OCC,water,298,-0.82,mol/L
O=C(OCCCCC)C,water,298,-1.89,mol/L
O=C(OC)CCCCC,water,298,-2.0,mol/L
O=C(OCC)CCCC,water,298,-1.75,mol/L
O=C(OCCC(C)C)C,water,298,-1.92,mol/L
O=C(OCCCCCC)C,water,298,-2.46,mol/L
O=C(OC)CCCCCCC,water,298,-3.39,mol/L
O=C(OCC)CCCCCC,water,298,-2.71,mol/L
O=C(OCC(OC(=O)C)COC(=O)C)C,water,298,-0.6,mol/L
O=C(OCC)CCCCCCC,water,298,-3.39,mol/L
O=C(OCC)CCCCCCCCC,water,298,-4.1,mol/L
O=C(OC)C=C,water,298,-0.22,mol/L
O=C(OCC)C=C,water,298,-0.74,mol/L
O=C(OC)C(=C)C,water,298,-0.8,mol/L
O=C(OCC)c(cccc1)c1,water,298,-2.32,mol/L
O=C(OC)c(c(ccc1)C(=O)OC)c1,water,298,-1.66,mol/L
O=C(OCCC)c(cccc1)c1,water,298,-2.67,mol/L
O=C(OCC)c(c(ccc1)C(=O)OCC)c1,water,298,-2.35,mol/L
O=C(OCC(C)C)c(c(ccc1)C(=O)OCC(C)C)c1,water,298,-4.66,mol/L
O=C(OCC(CCCC)CC)c(c(ccc1)C(=O)OCC(CCCC)CC)c1,water,298,-6.96,mol/L
O=C(OCc(cccc1)c1)c(c(ccc2)C(=O)OCCCC)c2,water,298,-5.64,mol/L
COCOC,water,298,0.48,mol/L
COCCC,water,298,-0.39,mol/L
COC(C)C,water,298,-0.06,mol/L
COCCCC,water,298,-0.99,mol/L
CCOCCC,water,298,-0.66,mol/L
CCOC(C)C,water,298,-0.55,mol/L
O(CCCC1)C1,water,298,-0.03,mol/L
CCCOCCC,water,298,-1.62,mol/L
O(C(C)C)C(C)C,water,298,-1.1,mol/L
CCOCCOCC,water,298,-0.77,mol/L
O(C(OCC)C)CC,water,298,-0.43,mol/L
CCCCOCCCC,water,298,-1.85,mol/L
CCOC=C,water,298,-0.85,mol/L
c1ccccc1Oc2ccccc2,water,298,-3.96,mol/L
o2c1ccccc1oc3ccccc23,water,298,-5.31,mol/L
Cc1cccc(c1)Oc2cccc(c2)C,water,298,-4.85,mol/L
O(C1C)C1,water,298,-0.59,mol/L
O(CCC1)C1,water,298,0.56,mol/L
O(C(CC1)C)C1,water,298,0.11,mol/L
O1C=CC=C1,water,298,-0.82,mol/L
o(c(c(c1cccc2)ccc3)c3)c12,water,298,-4.6,mol/L
O=C(O)C(O)(CC(=O)O)CC(=O)O,water,298,0.51,mol/L
OCC1C(O)C(O)C(O)C(O)O1,water,298,0.74,mol/L
O1CC(O)C(O)C(O)C1(O)CO,water,298,0.64,mol/L
CC13CCC(=O)C=C1CCC4C2CCC(O)(C(=O)CO)C2(C)CC(=O)C34,water,298,-3.11,mol/L
C1(=O)C=C2CCC3C4CC(C)C(O)(C(=O)CO)C4(C)CC(O)C3(F)C2(C)C=C1,water,298,-3.64,mol/L
CC(=O)OCC(=O)C3(O)CCC4C2CCC1=CC(=O)CCC1(C)C2C(=O)CC34C,water,298,-4.3,mol/L
C1C2=CC(=O)C=CC2(C)C3C(O)CC4(C)C(O)(C(=O)CO)CCC4C3C1,water,298,-3.21,mol/L
O=C(OC(C(C(C(C(C(C(=CC(=O)C1)C2)(C1)C)C3)C2SC(=O)C)C4)(C3)C)(C4)C5)C5,water,298,-4.28,mol/L
O=C(C(C(C(C(c(c(cc(O)c1)C2)c1)C3)C2)C4)(C3)C)C4,water,298,-3.96,mol/L
C1C(=O)C=C2CCC3C4CCC(C(=O)COC(=O)C)C4(C)CCC3C2(C)C1,water,298,-4.63,mol/L
O=C(C=C(C(C(C(C(C(C(O)(C)C1)(C2)C)C1)C3)C2)(C4)C)C3)C4,water,298,-3.99,mol/L
C1C(=O)C=C2CCC3C4CCC(=O)C4(C)CCC3C2(C)C1,water,298,-3.69,mol/L
O=C1C=C2CCC3C4CC(OC(=O)C)C(O)(C(=O)COC(=O)C)C4(C)CC(O)C3(F)C2(C)C=C1,water,298,-4.13,mol/L
CC(=O)C3(O)CCC4C2CCC1=CC(=O)CCC1(C)C2CCC34C,water,298,-4.71,mol/L
O=C1C=C2CCC3C4CC5OC(C)(C)OC5(C(=O)CO)C4(C)CC(O)C3(F)C2(C)C=C1,water,298,-4.32,mol/L
CC34CC(O)C1(F)C(CCC2=CC(=O)C=CC12C)C3CC(O)C4(O)C(=O)CO,water,298,-3.69,mol/L
C1=CC(=O)C=C2CCC3C4CC(C)C(O)(C(=O)CO)C4(C)CC(O)C3(F)C12C,water,298,-3.77,mol/L
CC1CC2C3CCC(O)(C(=O)C)C3(C)CC(O)C2(F)C4(C)C=CC(=O)C=C14,water,298,-4.1,mol/L
C1(=O)C=C2CCC3C4CC(C)C(O)(C(=O)COC(=O)C)C4(C)CC(O)C3(F)C2(C)C=C1,water,298,-4.9,mol/L
C1=CC(=O)C=C2CCC3C4CC(C)C(OC(=O)CCCC)(C(=O)CO)C4(C)CC(O)C3(F)C12C,water,298,-4.71,mol/L
O(c(c(O)ccc1)c1)C,water,298,-1.96,mol/L
O=C(O)c(ccc(O)c1)c1,water,298,-1.41,mol/L
O=Cc(ccc(O)c1)c1,water,298,-0.96,mol/L
O=Cc(ccc(OC)c1)c1,water,298,-1.49,mol/L
O(C(C(O)C(O)C1O)CO)C1Oc(c(ccc2)CO)c2,water,298,-0.85,mol/L
O=C(Oc(cccc1)c1)c(c(O)ccc2)c2,water,298,-3.15,mol/L
ClCC(O)CCl,water,298,-0.11,mol/L
FC(F)(F)C(O)C,water,298,0.3,mol/L
Oc(ccc(c1)Cl)c1,water,298,-0.7,mol/L
c1ccc(Cl)cc1O,water,298,-0.7,mol/L
Oc(ccc(c1)Br)c1,water,298,-1.09,mol/L
c1cc(Cl)cc(Cl)c1O,water,298,-1.55,mol/L
c1c(Cl)c(Cl)cc(Cl)c1O,water,298,-2.21,mol/L
Oc(c(c(c(c1Cl)Cl)Cl)Cl)c1Cl,water,298,-4.28,mol/L
c1cc(Cl)c(C)cc1O,water,298,-1.57,mol/L
O=C(O)CCl,water,298,0.93,mol/L
O=C(O)c(c(ccc1)Cl)c1,water,298,-1.89,mol/L
O=C(O)c(cccc1Cl)c1,water,298,-2.59,mol/L
ClCCOCCCl,water,298,-1.12,mol/L
COc1ccc(cc1)C(c2ccc(OC)cc2)C(Cl)(Cl)Cl,water,298,-6.89,mol/L
COc1c(Cl)ccc(Cl)c1C(O)=O,water,298,-1.7,mol/L
CCN(CC)CC,water,298,-0.14,mol/L
CCCNCCC,water,298,-0.46,mol/L
CCCCCCCN,water,298,-1.85,mol/L
CN(C)C,water,298,0.84,mol/L
CCCN(CCC)CCC,water,298,-2.28,mol/L
NCC(CCCC)CC,water,298,-1.71,mol/L
CCCCNCCCC,water,298,-1.44,mol/L
c1ccccc1N,water,298,-0.41,mol/L
c1cccc(N)c1N,water,298,-0.42,mol/L
c1cc(N)ccc1N,water,298,-0.38,mol/L
c1cccc(C)c1N,water,298,-0.85,mol/L
c1cc(C)ccc1N,water,298,-1.21,mol/L
c1ccc(C)cc1N,water,298,-0.85,mol/L
c1ccccc1CN,water,298,-1.53,mol/L
c1ccccc1NCC,water,298,-1.7,mol/L
c1ccccc1N(CC)CC,water,298,-3.03,mol/L
Nc(ccc(c(ccc(N)c1)c1)c2)c2,water,298,-2.7,mol/L
c1ccccc1Nc2ccccc2,water,298,-3.51,mol/L
Nc(ccc(c1)Cc(ccc(N)c2)c2)c1,water,298,-2.3,mol/L
N(N)c(cccc1)c1,water,298,0.07,mol/L
c1ccccn1,water,298,0.76,mol/L
c1ccc(C)c(C)n1,water,298,0.38,mol/L
c1cc(C)cc(C)n1,water,298,0.38,mol/L
Cc1cccc(C)n1,water,298,0.45,mol/L
c1cc(C)c(C)cn1,water,298,0.36,mol/L
c1c(C)cc(C)cn1,water,298,0.38,mol/L
n(c(c(ccc1)cc2)c1)c2,water,298,-1.3,mol/L
n(c(ccc1)c(nccc2)c2)c1,water,298,-1.42,mol/L
n(ccc(c1)c(ccnc2)c2)c1,water,298,-1.54,mol/L
n(cccc1C(N(CC2)C)C2)c1,water,298,0.79,mol/L
NNC(=O)c1ccncc1,water,298,0.01,mol/L
O=C(N)c(cccn1)c1,water,298,0.61,mol/L
n(cccc1CO)c1,water,298,0.96,mol/L
O=C(N)c(nccn1)c1,water,298,-0.91,mol/L
n(cccn1)c1,water,298,1.1,mol/L
c1ccc2c(c1)ccc3ncccc23,water,298,-3.36,mol/L
c1ccc2ncsc2c1,water,298,-1.5,mol/L
s1cccc1,water,298,-1.45,mol/L
n(c(c(ccc1)cc2)c1)c2c(nc(c(ccc3)c4)c3)c4,water,298,-5.4,mol/L
n(c(c(ccc1)cc2)c1O)c2,water,298,-2.42,mol/L
o(c(c(n1)ccc2)c2)c1,water,298,-1.16,mol/L
n(nccc1)c1,water,298,1.1,mol/L
c1cc2ncccc2c(O)c1,water,298,-2.54,mol/L
C1(C)=CSC=C1,water,298,-2.39,mol/L
C1=CSC(CC)=C1,water,298,-2.59,mol/L
Cc1cc(O)no1,water,298,-0.07,mol/L
O=C(N(N(C1=O)c(cccc2)c2)c(cccc3)c3)C1CCCC,water,298,-3.81,mol/L
COC(=O)C1C(CC2CCC1N2C)OC(=O)c3ccccc3,water,298,-2.23,mol/L
CN(C)CCCN2c1ccccc1CCc3ccccc23,water,298,-4.19,mol/L
CN(C)CCCN2c1ccccc1Sc3ccc(Cl)cc23,water,298,-5.01,mol/L
CCC1(C(=O)NC(=O)NC1=O)C2=CCCCC2,water,298,-2.17,mol/L
C=CCC1(CC=C)C(=O)NC(=O)NC1=O,water,298,-2.06,mol/L
OC2(CCN(CCCC(=O)c1ccc(F)cc1)CC2)c3ccc(Cl)cc3,water,298,-4.43,mol/L
CN2C(=O)NC(=O)C(C)(C1=CCCCC1)C2=O,water,298,-2.74,mol/L
Oc(ccc(C(=C(c(ccc(O)c1)c1)CC)CC)c2)c2,water,298,-4.35,mol/L
O=C(NC(C(O)c(ccc(N(=O)=O)c1)c1)CO)C(Cl)Cl,water,298,-2.11,mol/L
O=C(N(c(c(C1(C(N(C2)CC(C3C4C5OC6)=C6)C3)C2)ccc7)c7)C14)C5,water,298,-3.32,mol/L
CCC1(CC)C(=O)NC(=O)NC1=O,water,298,-1.39,mol/L
O=C(OCC(CCC)(C)COC(=O)N)N,water,298,-1.67,mol/L
O=S(=O)(Nc(nc(cc1C)C)n1)c(ccc(N)c2)c2,water,298,-2.27,mol/L
c1ccccc1N2C(=O)C(N(C)C)=C(C)N2C,water,298,-0.63,mol/L
c1ccc2Sc3ccccc3N(CCCN(C)C)c2c1,water,298,-4.3,mol/L
O=S(=O)(N)c(c(cc(NCNS1(=O)=O)c12)Cl)c2,water,298,-2.62,mol/L
NS(=O)(=O)c1c(Cl)cc2N=CNS(=O)(=O)c2c1,water,298,-3.05,mol/L
O=C(OCCN(CC)CC)c(ccc(N)c1)c1,water,298,-1.4,mol/L
c1ccc2Sc3ccccc3N(CC(C)N(C)C)c2c1,water,298,-4.26,mol/L
O=C1NCCN1c2ncc(s2)N(=O)=O,water,298,-3.22,mol/L
CC(=O)Nc1ccc(OCC)cc1,water,298,-2.37,mol/L
O=S(=O)(N)c(ccc(N)c1)c1,water,298,-1.36,mol/L
OCCN4CCN(CCCN2c1ccccc1Sc3ccc(cc23)C(F)(F)F)CC4,water,298,-4.15,mol/L
c12ncnc(N)c1ccn2C3OC(CO)C(O)C3(O),water,298,-1.95,mol/L
c1cc(N)ccc1S(=O)(=O)Nc2nccs2,water,298,-2.43,mol/L
CCCC(C)C1(CC)C(=O)NC(=O)NC1=O,water,298,-2.52,mol/L
O=C1NC(=S)NC(=O)C1(CC=C)C(C)CCC,water,298,-3.46,mol/L
CCCCC1(CC)C(=O)NC(=O)NC1=O,water,298,-1.64,mol/L
O=C(NC(=O)C(Br)(CC)CC)N,water,298,-2.68,mol/L
O=C(NC(=O)c1cccc2)c12,water,298,-2.61,mol/L