Solute,Solvent,Temperature_K,Solubility,Units
[Na+].[Na+].[Cr].[Cr].Oc1ccc2ccccc2c1N\N=C/3C(=O)C=C(c4cc(ccc34)[N+]([O-])=O)[S](O)(=O)=O.Oc5ccc6ccccc6c5N\N=C/7C(=O)C=C(c8cc(ccc78)[N+]([O-])=O)[S]([O-])(=O)=O.Oc9ccc%10ccccc%10c9N\N=C/%11C(=O)C=C(c%12cc(ccc%11%12)[N+]([O-])=O)[S]([O-])(=O)=O,water,298,-5.166184625,mol/L
CCCCCCCCCCCCOC(=O)C=C,water,298,-4.380910978,mol/L
[O--].[O--].[O--].[Al+3].[Y+3],water,298,-4.214539206,mol/L
[Rh+3].[I-].[I-].[I-],water,298,-4.684502457,mol/L
CCCCCCCCCCCCCCOC(=O)C=C,water,298,-4.428848848,mol/L
ClC1=C(Cl)C2(Cl)C3C(C(=O)OC3=O)C1(Cl)C2(Cl)Cl,water,298,-5.171234853,mol/L
COc1cc(N=Nc2c(Cl)cc(cc2[N+]([O-])=O)[N+]([O-])=O)c(NC(C)=O)cc1N(CCOC(C)=O)CCOC(C)=O,water,298,-5.46309979,mol/L
CCCCN(C1CC(C)(C)N(C)C(C)(C)C1)c2nc(NCCCN(CCN(CCCNc3nc(nc(n3)N(CCCC)C4CC(C)(C)N(C)C(C)(C)C4)N(CCCC)C5CC(C)(C)N(C)C(C)(C)C5)c6nc(nc(n6)N(CCCC)C7CC(C)(C)N(C)C(C)(C)C7)N(CCCC)C8CC(C)(C)N(C)C(C)(C)C8)c9nc(nc(n9)N(CCCC)C%10CC(C)(C)N(C)C(C)(C)C%10)N(CCCC)C%11CC(C)(C)N(C)C(C)(C)C%11)nc(n2)N(CCCC)C%12CC(C)(C)N(C)C(C)(C)C%12,water,298,-6.057984673,mol/L
COC(=O)c1sc(N)c(C#N)c1C,water,298,-4.991737621,mol/L
CCCCCCCCCCCCCCCCCC[P](=O)(OC)OC,water,298,-5.529966163,mol/L
CCCCCCCC\C=C/CCCCCCCC(=O)NCC(C)O,water,298,-5.530921641,mol/L
[Al+3].[O-][P]([O-])(=O)O[P]([O-])(=O)O[P]([O-])([O-])=O,water,298,-5.668842338,mol/L
CC(C)(O)C(=O)c1ccc(cc1)C2(C)CC(C)(C)c3cc(ccc23)C(=O)C(C)(C)O,water,298,-5.93729046,mol/L
CC(C)(O)C(=O)c1ccc(cc1)C2(C)CC(C)(C)c3ccc(cc23)C(=O)C(C)(C)O,water,298,-5.963849488,mol/L
[Al+3].[O-][P]([O-])(=O)O[P]([O-])(=O)O[P]([O-])([O-])=O,water,298,-5.915514672,mol/L
CCCCCCCCCCCCCCCCCCOC(=O)CCc1cc(c(O)c(c1)C(C)(C)C)C(C)(C)C,water,298,-6.423964733,mol/L
CC(C)=CCC\C(C)=C\CCC(=C)C=C,water,298,-6.310389519,mol/L
Cc1cccc(C)c1O[P](=O)(Oc2cccc(O[P](=O)(Oc3c(C)cccc3C)Oc4c(C)cccc4C)c2)Oc5c(C)cccc5C,water,298,-6.836753134,mol/L
CCCCC1CCC(CC1)C2CCC(=O)CC2,water,298,-6.373645635,mol/L
CCCCCCCC[Sn](CCCCCCCC)(CCCCCCCC)CCCCCCCC,water,298,-6.757097539,mol/L
[Cl].[Rh].c1ccc(cc1)P(c2ccccc2)c3ccccc3.c4ccc(cc4)P(c5ccccc5)c6ccccc6.c7ccc(cc7)P(c8ccccc8)c9ccccc9,water,298,-7.012009544,mol/L
CC(C)CCCCCCCCCCOC(=O)CSCc1cc(c(O)c(c1)C(C)(C)C)C(C)(C)C,water,298,-6.789589525,mol/L
[Cl-].[Cl-].[Pd++].c1ccc(cc1)P(c2ccccc2)c3ccccc3.c4ccc(cc4)P(c5ccccc5)c6ccccc6,water,298,-7.026737494,mol/L
Nc1ccc(cc1Cl)C2(c3ccc(N)c(Cl)c3)c4ccccc4c5ccccc25,water,298,-6.904485627,mol/L
Clc1c(Cl)c(Cl)c2C3=Nc4cccc5cccc(N3C(=O)c2c1Cl)c45,water,298,-7.133614478,mol/L
OC1=Cc2ccccc2NC1=C3C(=O)c4ccccc4C3=O,water,298,-7.046360074,mol/L
CCCC(CC)COC(=O)CCc1cc(c(O)c(c1)C(C)(C)C)C(C)(C)C,water,298,-7.197460503,mol/L
CC(C)(C)c1cc(Cc2cc(c(O)c(c2)C(C)(C)C)C(C)(C)C)cc(c1O)C(C)(C)C,water,298,-7.2956121,mol/L
Cc1cc(c(O)c(C)c1CN2C(=O)N(Cc3c(C)cc(c(O)c3C)C(C)(C)C)C(=O)N(Cc4c(C)cc(c(O)c4C)C(C)(C)C)C2=O)C(C)(C)C,water,298,-7.544026474,mol/L
CCc1cc(C)cc(CC)c1Nc2ccc(Nc3c(CC)cc(C)cc3CC)c4C(=O)c5ccccc5C(=O)c24,water,298,-7.423828912,mol/L
CCc1cccc(C)c1Nc2ccc(Nc3c(C)cccc3CC)c4C(=O)c5ccccc5C(=O)c24,water,298,-7.375301399,mol/L
O=C1N2c3cccc4cccc(N=C2c5cccc6cccc1c56)c34,water,298,-7.204596088,mol/L
CCCCCCCCSCc1cc(C)c(O)c(CSCCCCCCCC)c1,water,298,-7.327113617,mol/L
CCCCCCCCSc1nc(Nc2cc(c(O)c(c2)C(C)(C)C)C(C)(C)C)nc(SCCCCCCCC)n1,water,298,-7.469064653,mol/L
CCCCCCCC[Sn](=O)CCCCCCCC,water,298,-7.375853651,mol/L
CCCCCCCCCCCCCCCCOC(C)=O,water,298,-7.397152994,mol/L
[OH-].[OH-].[Cu++].[Cu++].[O-]C([O-])=O,water,298,-7.344616241,mol/L
O=[Cu],water,298,-6.900612886,mol/L
CCCCC(CC)COC(=O)CCC(=O)OCC(CC)CCCC,water,298,-7.835715931,mol/L
CCC(CC)CO[Si](OCC(CC)CC)(OCC(CC)CC)OCC(CC)CC,water,298,-8.190644916,mol/L
CC(C)(C)c1cc(Cc2cc(c(O)c(c2)C(C)(C)C)C(C)(C)C)cc(c1O)C(C)(C)C,water,298,-8.62805056,mol/L
CCCCCCCCOc1ccc(c(O)c1)C(=O)c2ccccc2,water,298,-8.513798048,mol/L
CCCCCCCCC(O)=O.CCCCCCCC(O)=O.CCCCC(CC)C(O)=O.OCC(CO)(CO)CO,water,298,-8.765531466,mol/L
CCCCC(CC)COC(=O)c1ccc(Nc2nc(Nc3ccc(cc3)C(=O)NC(C)(C)C)nc(Nc4ccc(cc4)C(=O)OCC(CC)CCCC)n2)cc1,water,298,-9.009167506,mol/L
CCCCCCCC(=O)OOC(=O)CCCCCCC,water,298,-7.61189317,mol/L
BrC1CC(Br)CC(Br)CC(Br)CC(Br)CC(Br)C1,water,298,-6.9904282,mol/L
c1ccc2cc3ccccc3cc2c1,water,298,-6.44481058,mol/L
C.[Nb],water,298,-7.226318968,mol/L
Clc1ccc(Cl)c(N\N=C2/C(=O)C(=Cc3ccccc23)C(=O)Nc4cc(Cl)c(NC(=O)C5=Cc6ccccc6C(=N/Nc7cc(Cl)ccc7Cl)\C5=O)cc4Cl)c1,water,298,-8.150868125,mol/L
CCCCCCCCCCCCS,water,298,-7.573831768,mol/L
C.[Nb],water,298,-7.366050406,mol/L
C.[Nb],water,298,-7.396741811,mol/L
C.[Nb],water,298,-7.635822708,mol/L
O=C1c2ccccc2C(=O)c3ccccc13,water,298,-6.039760498,mol/L
[Ca++].Cc1ccccc1NC(=O)CC(=O)CN=Nc2ccc(cc2[N+]([O-])=O)[S]([O-])(=O)=O.Cc3ccccc3NC(=O)CC(=O)CN=Nc4ccc(cc4[N+]([O-])=O)[S]([O-])(=O)=O,water,298,-7.739803669,mol/L
CC(C)(C)CCCCC(=O)OC=C,water,298,-7.122461047,mol/L
C[C@@H](C[C@H](c1cc(C2CCCCC2)c(O)cc1C)c3cc(C4CCCCC4)c(O)cc3C)c5cc(C6CCCCC6)c(O)cc5C,water,298,-7.396502027,mol/L
[Al+3].[Cl-].[Cl-].[Cl-],water,298,-7.045782462,mol/L
O.O.O.O.O.O.O.O.O.[Al+3].[Al+3].[O-][S]([O-])(=O)=O.[O-][S]([O-])(=O)=O.[O-][S]([O-])(=O)=O,water,298,-7.498558651,mol/L
O=C1N2c3cccc4cccc(N=C2c5cccc6cccc1c56)c34,water,298,-7.464233399,mol/L
FC(F)(F)C1(F)C(F)(F)C(F)(F)C(F)(F)C(F)(C(F)(F)F)C1(F)F,water,298,-7.602120788,mol/L
FC1(F)C(F)(F)C(F)(F)C2(F)C(F)(F)C(F)(F)C(F)(F)C(F)(F)C2(F)C1(F)F,water,298,-7.664711532,mol/L
FC(F)(F)C(F)(F)C(F)(F)C(F)(F)C(F)(F)C(F)(F)C(F)(F)C(F)(F)F,water,298,-7.641525668,mol/L
CC(C)(C)N(Sc1sc2ccccc2n1)Sc3sc4ccccc4n3,water,298,-8.362937857,mol/L
Clc1c(Cl)c(Br)c2C3=NC(=Nc4n5[Cu]N6C(=N3)c7c(Cl)c(Br)c(Cl)c(Br)c7C6=NC8=NC(=Nc5c9c(Br)c(Cl)c(Br)c(Cl)c49)c%10c(Cl)c(Cl)c(Br)c(Cl)c8%10)c2c1Cl,water,298,-9.144234111,mol/L
Clc1cc(Cl)c2C3N=C(N=C4N5[Cu]N6C(N=C7N=C(N=C5c8c(Cl)c(Cl)c(Cl)c(Cl)c48)c9c(Cl)c(Cl)c(Cl)c(Cl)c79)c%10c(Cl)c(Cl)c(Cl)c(Cl)c%10C6=N3)c2c1Cl,water,298,-9.039324078,mol/L
C.[Nb],water,298,-8.134133261,mol/L
Brc1c(Br)c(Br)c(CCc2c(Br)c(Br)c(Br)c(Br)c2Br)c(Br)c1Br,water,298,-9.129987804,mol/L
CCCCC(CC)COC(=O)c1ccc(cc1)C(=O)OCC(CC)CCCC,water,298,-8.989632219,mol/L
CCC(C)CCCC(C)CCCC(C)C,water,298,-8.92925744,mol/L
CCCCCCCCOC(=O)c1ccccc1C(=O)OCc2ccccc2,water,298,-9.265375675,mol/L
[Cr],water,298,-10.01699993,mol/L
O=[V]=O,water,298,-6.059025465,mol/L
O=[V]=O,water,298,-6.129183319,mol/L
[Co],water,298,-4.777363451,mol/L
[S--].[Co++],water,298,-4.969769601,mol/L
O=[W]=O,water,298,-5.442033305,mol/L
[O--].[O--].[O--].[Sm+3].[Sm+3],water,298,-5.558846833,mol/L
O=[W]=O,water,298,-6.476795412,mol/L
O=[W]=O,water,298,-5.531354183,mol/L
O=[W]=O,water,298,-6.578253052,mol/L
O=[W]=O,water,298,-5.580544849,mol/L
O=[W]=O,water,298,-4.708301195,mol/L
[Co],water,298,-4.797692957,mol/L
O=[W]=O,water,298,-6.815613968,mol/L
O=[W]=O,water,298,-5.955730007,mol/L
CC(C)(C)c1ccc(O[P@]2OC[C@]3(CO2)CO[P@](OC3)Oc4ccc(cc4C(C)(C)C)C(C)(C)C)c(c1)C(C)(C)C,water,298,-6.813060611,mol/L
CCCCCCCCCC(O)=O.CCCCCCCC(O)=O.CC(C)(CO)CO,water,298,-6.655885563,mol/L
O=[W]=O,water,298,-6.308822043,mol/L
CC(C)OC(=O)c1ccc(C)c(c1)N=Nc2c(O)c(cc3ccccc23)C(=O)Nc4cc(Cl)c(NC(=O)c5cc6ccccc6c(N=Nc7cc(ccc7C)C(=O)OC(C)C)c5O)cc4Cl,water,298,-7.007487981,mol/L
[S--].[Co++],water,298,-6.000955544,mol/L
Cc1ccccc1NC(=O)C2=Cc3ccccc3C(=N/Nc4cc(Cl)c(Cl)cc4Cl)\C2=O,water,298,-7.69430966,mol/L
CC(=O)C(N=Nc1ccc(C)cc1[N+]([O-])=O)C(=O)Nc2ccc(Cl)cc2,water,298,-7.605298094,mol/L
[Co],water,298,-3.825727848,mol/L
O[Co]=O,water,298,-6.018031191,mol/L
[S--].[Co++],water,298,-5.015250193,mol/L
C.[V],water,298,-4.187987781,mol/L
C.[V],water,298,-6.205841507,mol/L
C.[V],water,298,-6.381308331,mol/L
C.[V],water,298,-4.500810952,mol/L
C.[V],water,298,-6.500051606,mol/L
O[Co]=O,water,298,-5.029759476,mol/L
[S--].[Co++],water,298,-4.028703757,mol/L
C.[V],water,298,-4.581727663,mol/L
C.[V],water,298,-6.630631503,mol/L
C.[V],water,298,-4.716061699,mol/L
[S--].[Co++],water,298,-6.043641557,mol/L
O=[P](Oc1ccccc1)(Oc2ccccc2)Oc3cccc(O[P](=O)(Oc4ccccc4)Oc5ccccc5)c3,water,298,-7.809383602,mol/L
COc1cc(OC)c(NC(=O)C2=Cc3ccccc3C(=N/Nc4cc(ccc4OC)C(=O)Nc5ccc(cc5)C(N)=O)\C2=O)cc1Cl,water,298,-7.866240199,mol/L
COc1ccc(cc1N\N=C2/C(=O)C(=Cc3ccccc23)C(=O)Nc4cc(OC)c(Cl)cc4OC)C(=O)Nc5ccccc5,water,298,-7.846560339,mol/L
Brc1c(Br)c(Br)c(COC(=O)C=C)c(Br)c1Br,water,298,-7.806077004,mol/L
COc1ccccc1N=NC(C(C)=O)C(=O)Nc2ccc3NC(=O)Nc3c2,water,298,-7.630599326,mol/L
[P],water,298,-6.566718008,mol/L
O[Co]=O,water,298,-7.049685923,mol/L
COc1cc(NC(=O)C(N=Nc2ccc(cc2Cl)c3ccc(N=NC(C(C)=O)C(=O)Nc4cc(OC)c(Cl)cc4OC)c(Cl)c3)C(C)=O)c(OC)cc1Cl,water,298,-8.004532604,mol/L
CC1=NN(c2ccccc2)C(=O)C1N=Nc3ccccc3,water,298,-7.541446627,mol/L
O=[Ti]=O,water,298,-4.999994562,mol/L
CCCCC(CC)COC(=O)c1c(Br)c(Br)c(Br)c(Br)c1C(=O)OCC(CC)CCCC,water,298,-5.949075231,mol/L
[S--].[Co++],water,298,-6.06306666,mol/L
[Co],water,298,-3.883473191,mol/L
[S--].[Co++],water,298,-4.074427258,mol/L
[Co],water,298,-5.88443221,mol/L
FC(F)(F)N1C(F)(F)C(F)(F)OC(F)(F)C1(F)F,water,298,-5.596058626,mol/L
O=C1c2ccccc2C(=O)c3ccccc13,water,298,-6.445775272,mol/L
c1ccc2cc3ccccc3cc2c1,water,298,-6.381758834,mol/L
[Ag+].CCCCCCCCCCCCCCCCCCCCCC([O-])=O,water,298,-6.782690092,mol/L
[Co],water,298,-4.916660338,mol/L
[S--].[Co++],water,298,-6.105343181,mol/L
[S--].[Co++],water,298,-4.108474795,mol/L
CCN(CC)[S](=O)(=O)c1ccc(OC)c(N\N=C2\C(=O)C(=Cc3ccccc23)C(=O)Nc4cc(Cl)c(OC)cc4OC)c1,water,298,-7.905255356,mol/L
[O--].[O--].[O--].[Nd+3].[Nd+3],water,298,-7.634860781,mol/L
CC(=O)C(N=Nc1ccc(Cl)cc1[N+]([O-])=O)C(=O)Nc2ccccc2Cl,water,298,-7.72175787,mol/L
CN[S](=O)(=O)c1cc(OC)c(N\N=C2/C(=O)C(=Cc3ccccc23)C(=O)Nc4ccc5NC(=O)Nc5c4)cc1OC,water,298,-7.89163614,mol/L
O=C1n2c3ccccc3nc2c4ccc5C(=O)n6c7ccccc7nc6c8ccc1c4c58,water,298,-7.757994585,mol/L
O=C1n2c3ccccc3nc2c4ccc5c6nc7ccccc7n6C(=O)c8ccc1c4c58,water,298,-7.757994585,mol/L
Cc1cc(C)c(Nc2ccc(Nc3c(C)cc(C)cc3C)c4C(=O)c5ccccc5C(=O)c24)c(C)c1,water,298,-7.825073045,mol/L
O=[Te]=O,water,298,-5.358612404,mol/L
[Co],water,298,-4.931509459,mol/L
O[Co]=O,water,298,-6.126543039,mol/L
[Co],water,298,-4.946232716,mol/L
[Co],water,298,-3.948845021,mol/L
O=[Co],water,298,-5.052826397,mol/L
O[Co]=O,water,298,-5.1495187,mol/L
[S--].[Co++],water,298,-4.154193486,mol/L
S,water,298,-5.733197265,mol/L
CC(C)C1CCCCC1,water,298,-5.311626594,mol/L
[Co],water,298,-4.983607127,mol/L
[S--].[Co++],water,298,-4.172666238,mol/L
O=[Co],water,298,-5.091049559,mol/L
O=[Co],water,298,-5.094494081,mol/L
O=[Nb](=O)O[Nb](=O)=O,water,298,-6.947445159,mol/L
CCCC(Cl)CCCC(Cl)CCC(Cl)CCC(Cl)CCC(Cl)CCCC(Cl)CCC,water,298,-7.91711864,mol/L
O[Co]=O,water,298,-7.157319802,mol/L
O=[Co],water,298,-7.068487351,mol/L
[O--].[O--].[O--].[O--].[O--].[Al+3].[Al+3].[Zn++].[Zn++],water,298,-7.623477375,mol/L
CCCCCCCCCCCCCCCCCCN1C(=O)c2ccc3Sc4ccccc4c5ccc(C1=O)c2c35,water,298,-7.96678917,mol/L
[Co],water,298,-5.001720448,mol/L
[Co],water,298,-5.004988069,mol/L
[Co],water,298,-4.010766241,mol/L
[Co],water,298,-5.022170523,mol/L
[Co],water,298,-5.023802188,mol/L
[S--].[Co++],water,298,-4.218370858,mol/L
[S--].[Co++],water,298,-5.235667825,mol/L
[Co],water,298,-5.049537968,mol/L
O=[Co],water,298,-6.152033402,mol/L
O[Co]=O,water,298,-5.251945608,mol/L
CCC(C)CCCC(C)CCCC(C)C,water,298,-6.61539022,mol/L
[Ca++].Cc1ccc(N\N=C\2C(=O)C(=Cc3ccccc23)C([O-])=O)c(c1)[S]([O-])(=O)=O,water,298,-5.928853464,mol/L
CCCCC(CC)CO[P](=O)(Oc1ccccc1)Oc2ccccc2,water,298,-6.855044862,mol/L
CCN1C(=O)C(=N/Nc2ccccc2[N+]([O-])=O)\C(=C(C#N)C1=O)C,water,298,-6.815976001,mol/L
CC(=O)C(N=Nc1cc(ccc1Cl)C(=O)Nc2cc(Cl)ccc2C)C(=O)Nc3cc(C)c(NC(=O)C(N=Nc4cc(ccc4Cl)C(=O)Nc5cc(Cl)ccc5C)C(C)=O)cc3C,water,298,-7.263233538,mol/L
CCCC(Cl)CCCC(Cl)CCC(Cl)CCC(Cl)CCC(Cl)CCCC(Cl)CCC,water,298,-7.965810564,mol/L
Cc1ccccc1OP(Oc2ccccc2C)Oc3ccccc3C,water,298,-7.77984306,mol/L
COc1ccc(NC(=O)C(N=Nc2ccc(cc2Cl)c3ccc(N=NC(C(C)=O)C(=O)Nc4ccccc4)c(Cl)c3)C(C)=O)cc1.COc5ccc(NC(=O)C(N=Nc6ccc(cc6Cl)c7ccc(N=NC(C(C)=O)C(=O)Nc8ccc(OC)cc8)c(Cl)c7)C(C)=O)cc5.CC(=O)C(N=Nc9ccc(cc9Cl)c%10ccc(N=NC(C(C)=O)C(=O)Nc%11ccccc%11)c(Cl)c%10)C(=O)Nc%12ccccc%12,water,298,-8.540480954,mol/L
Cc1ccc2Nc3cc4C(=O)c5cc(C)ccc5Nc4cc3C(=O)c2c1,water,298,-7.783778559,mol/L
CN1C(=O)c2ccc3c4ccc5C(=O)N(C)C(=O)c6ccc(c7ccc(C1=O)c2c37)c4c56,water,298,-7.88123729,mol/L
Clc1ccc(Cl)c(N\N=C2\C(=O)C(=Cc3ccccc23)C(=O)Nc4ccccc4)c1,water,298,-7.907389462,mol/L
CC(=O)C(N=Nc1ccc(cc1Cl)c2ccc(N=NC(C(C)=O)C(=O)Nc3ccc(C)cc3)c(Cl)c2)C(=O)Nc4ccc(C)cc4,water,298,-8.101930722,mol/L
[Dy],water,298,-7.511883361,mol/L
O=C(c1ccc(Oc2ccccc2)cc1)c3ccc(cc3)C(=O)c4ccc(Oc5ccccc5)cc4,water,298,-7.973611776,mol/L
[Al+3].O[PH]([O-])=O.O[PH]([O-])=O.O[PH]([O-])=O,water,298,-4.770880972,mol/L
COc1ccc(cc1)\C=C/2N=C(OC2=O)c3ccc(cc3)C4=NC(=C/c5ccc(OC)cc5)/C(=O)O4,water,298,-6.983571154,mol/L
CCOC(=O)c1ccc2Sc3ccccc3C(=O)c2c1,water,298,-6.756602507,mol/L
[Al+3].O[PH]([O-])=O.O[PH]([O-])=O.O[PH]([O-])=O,water,298,-6.877631734,mol/L
[Cu]1N2C3=NC4=NC(=Nc5n1c(N=C6N=C(N=C2c7ccccc37)c8ccccc68)c9ccccc59)c%10ccccc4%10,water,298,-8.158424314,mol/L
[Al+3].O[PH]([O-])=O.O[PH]([O-])=O.O[PH]([O-])=O,water,298,-7.291078392,mol/L
O[Co]=O,water,298,-6.275970815,mol/L
[S--].[Co++],water,298,-5.280887354,mol/L
[Co],water,298,-5.093847839,mol/L
[S--].[Co++],water,298,-5.284823447,mol/L
CCCCC(CC)COC(=O)C1CCC(CC1)C(=O)OCC(CC)CCCC,water,298,-6.926267992,mol/L
[Co],water,298,-4.109208692,mol/L
[Co],water,298,-5.117146036,mol/L
CC(C)CCCCCCCCCCCCCCCOC(=O)CCCCCCCCCCCCCCC(C)C,water,298,-7.086497346,mol/L
CC1CCCCCCCCCCCCC(=O)C1,water,298,-5.74386512,mol/L
[Fe],water,298,-5.11351584,mol/L
[S--].[Co++],water,298,-5.330039773,mol/L
[Zn++].CCCCCCC(O)CCCCCCCCCCC([O-])=O.CCCCCCC(O)CCCCCCCCCCC([O-])=O,water,298,-5.202462692,mol/L
[Co],water,298,-4.152310453,mol/L
CC(C)c1ccc(cc1)C(C)C,water,298,-6.602799271,mol/L
O[Co]=O,water,298,-7.282258538,mol/L
CC1=NN(c2ccccc2)C(=O)C1/C=C/3C(=NN(c4ccccc4)C3=O)C,water,298,-7.882271355,mol/L
Cc1ccccc1NC(=O)C2=Cc3ccccc3C(=N/Nc4ccc(cc4C)[N+]([O-])=O)/C2=O,water,298,-7.981147657,mol/L
CC\1=NN(C(=O)C1=N/Nc2ccc(cc2Cl)c3ccc(N\N=C4/C(=NN(C4=O)c5ccccc5)C)c(Cl)c3)c6ccccc6,water,298,-8.14162673,mol/L
COC(=O)c1ccc(cc1N\N=C2/C(=O)C(=Cc3ccccc23)C(=O)Nc4ccccc4OC)C(=O)Nc5cc(Cl)ccc5Cl,water,298,-8.175068622,mol/L
CCCCNc1ccc(NCCCC)c2C(=O)c3ccccc3C(=O)c12,water,298,-7.931857078,mol/L
CC(C)CCC[C@@H](C)CCC[C@@H](C)CCC/C(C)=C/CO,water,298,-4.861741107,mol/L
Cc1cc(n2nc3ccc(Cl)cc3n2)c(O)c(c1)C(C)(C)C,water,298,-7.897357635,mol/L
CCCCCCCCCCCCCCCCCCCN,water,298,-5.85712424,mol/L
O[Co]=O,water,298,-5.369992186,mol/L
CCCCCCCC(=O)CC(=O)c1ccccc1,water,298,-5.803841602,mol/L
[Co++].[O-]C([O-])=O,water,298,-4.491747447,mol/L
[Co++].[O-]C([O-])=O,water,298,-4.491792766,mol/L
[Co++].[O-]C([O-])=O,water,298,-5.491113473,mol/L
O=[Co],water,298,-6.28808002,mol/L
S=[P](Oc1ccccc1)(Oc2ccccc2)Oc3ccccc3,water,298,-6.954694347,mol/L
[Co++].CCCCC(CC)C([O-])=O.CCCCC(CC)C([O-])=O,water,298,-5.959613963,mol/L
[Co++].[O-]C([O-])=O,water,298,-4.497839786,mol/L
[O-][N+](=O)c1ncn(CC(=O)Nc2cc(ccc2Cl)C(F)(F)F)n1,water,298,-5.968106767,mol/L
[Co++].[O-]C([O-])=O,water,298,-5.503506337,mol/L
[S--].[Co++],water,298,-4.389749433,mol/L
[O--].[O--].[O--].[Sb+3].[Sb+3],water,298,-5.896462162,mol/L
[Al+3].[Cl-].[Cl-].[Cl-],water,298,-6.568661207,mol/L
[Co],water,298,-4.218299015,mol/L
[Co],water,298,-5.225422784,mol/L
[Co],water,298,-4.22691137,mol/L
[Co++].[O-]C([O-])=O,water,298,-4.536129986,mol/L
[S--].[Co++],water,298,-4.43543798,mol/L
[Co++].[O-]C([O-])=O,water,298,-4.556370421,mol/L
[Co++].[O-]C([O-])=O,water,298,-4.556423012,mol/L
CC(C)(c1cc(Br)c(O)c(Br)c1)c2cc(Br)c(O)c(Br)c2.ClCC3CO3,water,298,-7.273530473,mol/L
CC(C)(C)CCCCC1(OO1)C(=O)OC(C)(C)CC(C)(C)C,water,298,-6.971234419,mol/L
O=[Co],water,298,-3.35846259,mol/L
[Co++].[O-]C([O-])=O,water,298,-5.56639806,mol/L
Clc1ccc2Nc3cc4C(=O)c5ccccc5Nc4cc3C(=O)c2c1Cl,water,298,-7.066625646,mol/L
[Ba++].[O-][S](=O)(=O)c1c(N\N=C\2C(=O)C=Cc3ccccc23)ccc4ccccc14.[O-][S](=O)(=O)c5c(N\N=C\6C(=O)C=Cc7ccccc67)ccc8ccccc58,water,298,-7.438544783,mol/L
[O-][N+](=O)c1cc(Cl)c(N=Nc2ccc(cc2)N(CCC#N)CCC#N)c(Cl)c1,water,298,-7.115252612,mol/L
[Co++].[O-]C(=O)C([O-])=O,water,298,-4.667787925,mol/L
[Co++].[O-]C(=O)C([O-])=O,water,298,-4.681011371,mol/L
[Co++].[O-]C([O-])=O,water,298,-5.589042825,mol/L
CCCCC(CC)C(=O)OOC(C)(C)CC(C)(C)C,water,298,-5.94953191,mol/L
[Co],water,298,-5.288915921,mol/L
CC(C)CCC[C@@H](C)[C@H]1CC[C@H]2[C@@H]3CC=C4C[C@@H](O)CC[C@]4(C)[C@H]3CC[C@]12C,water,298,-7.100195364,mol/L
FC(F)(F)C(F)(F)C(F)(F)C(F)(F)C(F)(F)C(F)(F)CCI,water,298,-7.188638134,mol/L
O[Co]=O,water,298,-6.4763614,mol/L
O=[Co],water,298,-6.387528949,mol/L
CC(C)CCC[C@@H](C)[C@H]1CC[C@H]2[C@@H]3CC=C4C[C@@H](O)CC[C@]4(C)[C@H]3CC[C@]12C,water,298,-7.104460156,mol/L
CC(C)C(C)(C)C(C)(C)C(C)(C)S,water,298,-7.711832978,mol/L
COc1ccc(cc1N\N=C2/C(=O)C(=Cc3ccccc23)C(=O)Nc4cc(Cl)ccc4OC)C(=O)Nc5ccccc5,water,298,-8.184413465,mol/L
Nc1c(OCCOC(=O)Oc2ccccc2)cc(O)c3C(=O)c4ccccc4C(=O)c13,water,298,-8.054415311,mol/L
[O--].[O--].[O--].[O--].[O--].[Al+3].[Al+3].[Co++].[Co++],water,298,-7.844796342,mol/L
CCCCCCCCCCCCCCCCCCCCCC(=O)OCC(CO)(CO)COC(=O)CCCCCCCCCCCCCCCCCCCCC,water,298,-8.348750336,mol/L
Cc1ccc(cc1)N2N=C(C)C(N=Nc3ccc(cc3Cl)c4ccc(N=NC5C(=NN(c6ccc(C)cc6)C5=O)C)c(Cl)c4)C2=O,water,298,-8.269885037,mol/L
O=C1c2ccccc2c3ccc4Sc5ccccc5c6ccc1c3c46,water,298,-7.982807307,mol/L
O=[Co],water,298,-7.33059928,mol/L
CC(=O)OCCOc1ccc(cc1)C(C)(C)c2ccc(OCCOC(C)=O)cc2,water,298,-8.058503028,mol/L
CN[S](=O)(=O)c1cc(OC)c(N\N=C2/C(=O)C(=Cc3ccccc23)C(=O)Nc4ccc5NC(=O)Nc5c4)cc1C,water,298,-8.217167979,mol/L
BrC1CC(Br)CC(Br)CC(Br)CC(Br)CC(Br)C1,water,298,-8.275853122,mol/L
O=[Ti]=O,water,298,-7.370877579,mol/L
[O-][N+](=O)c1ccc(N\N=C2/C(=O)C=Cc3ccccc23)c(Cl)c1,water,298,-7.996998283,mol/L
Cc1ccc(N\N=C2/C(=O)C=Cc3ccccc23)c(c1)[N+]([O-])=O,water,298,-7.96906134,mol/L
CCCCOC(=O)c1ccccc1N\N=C2/C(=O)C(=Cc3ccccc23)C(=O)Nc4ccc5NC(=O)Nc5c4,water,298,-8.213807356,mol/L
O=[Cr]O[Cr]=O,water,298,-7.68626782,mol/L
CC(C)CCCCCCCCCCCCCCC(=O)OCC(COC(=O)CCCCCCCCCCCCCCC(C)C)OC(=O)CCCCCCCCCCCCCCC(C)C,water,298,-8.458760141,mol/L
CCCCC(CC)COC(=O)c1ccc(C(=O)OCC(CC)CCCC)c(c1)C(=O)OCC(CC)CCCC,water,298,-8.252098343,mol/L
COc1ccccc1NC(=O)C2=Cc3ccccc3C(=N/Nc4ccc(cc4)C(N)=O)/C2=O,water,298,-8.166784234,mol/L
[Ba++].Cc1cc(N\N=C\2C(=O)C=Cc3ccccc23)c(cc1Cl)[S]([O-])(=O)=O.Cc4cc(N\N=C\5C(=O)C=Cc6ccccc56)c(cc4Cl)[S]([O-])(=O)=O,water,298,-5.473789485,mol/L
[Co++].[O-]C(=O)C([O-])=O,water,298,-4.692475618,mol/L
[Co],water,298,-4.300242196,mol/L
[Co++].[O-]C(=O)C([O-])=O,water,298,-4.710260192,mol/L
O=[Sn],water,298,-8.828369841,mol/L
[Co++].[O-]C(=O)C([O-])=O,water,298,-3.714281064,mol/L
[Co++].[O-]C(=O)C([O-])=O,water,298,-5.716615536,mol/L
[Co++].[O-]C(=O)C([O-])=O,water,298,-3.719392988,mol/L
[Co++].[O-]C(=O)C([O-])=O,water,298,-5.725948872,mol/L
CCCCC(CC)C(=O)OOC(C)(C)CCC(C)(C)OOC(=O)C(CC)CCCC,water,298,-7.188496045,mol/L
Cc1cc(O)c(cc1Sc2cc(c(O)cc2C)C(C)(C)C)C(C)(C)C,water,298,-7.112066324,mol/L
[Al+3].[Cl-].[Cl-].[Cl-],water,298,-6.693599944,mol/L
[Co],water,298,-4.341576038,mol/L
[Co++].[O-]C(=O)C([O-])=O,water,298,-5.738066538,mol/L
[Co++].[O-]C([O-])=O,water,298,-5.648332627,mol/L
[Co++].[O-]C(=O)C([O-])=O,water,298,-3.745780883,mol/L
[Co++].[O-]C(=O)C([O-])=O,water,298,-5.747547185,mol/L
[Co++].CCCCC(CC)C([O-])=O.CCCCC(CC)C([O-])=O,water,298,-6.121446301,mol/L
CC(C)(c1cc(Br)c(OCC2CO2)c(Br)c1)c3cc(Br)c(OCC4CO4)c(Br)c3,water,298,-7.395301899,mol/L
[Ag+].CCCCCCCCCCCCCCCCCCCCCC([O-])=O,water,298,-7.235773106,mol/L
[Ca++].Cc1cc(c(N\N=C\2C(=O)C(=Cc3ccccc23)C([O-])=O)cc1Cl)[S]([O-])(=O)=O,water,298,-6.263770478,mol/L
Nc1ccc(c2ccc(N)c3C(=O)c4ccccc4C(=O)c23)c5C(=O)c6ccccc6C(=O)c15,water,298,-7.249878993,mol/L
[Co],water,298,-4.382079686,mol/L
[Ca++].[O-]C(=O)C1=Cc2ccccc2/C(=N/Nc3ccc4ccccc4c3[S]([O-])(=O)=O)C1=O,water,298,-6.279395406,mol/L
[Co],water,298,-4.387621284,mol/L
CC(=O)Nc1ccc(NC(=O)C2=Cc3ccccc3C(=N/Nc4cc(ccc4Cl)C(N)=O)/C2=O)cc1,water,298,-7.304443807,mol/L
CCOC(=O)C(=C)C#N,water,298,-6.717139791,mol/L
[Co++].[O-]C([O-])=O,water,298,-5.706115728,mol/L
[Zn++].CCCCCCC(O)CCCCCCCCCCC([O-])=O.CCCCCCC(O)CCCCCCCCCCC([O-])=O,water,298,-5.454848129,mol/L
O=[Co],water,298,-5.514452711,mol/L
[Na+].C[O-].COC(=O)c1c(Cl)c(Cl)c(Cl)c(Cl)c1C#N.Nc2ccc(N)cc2,water,298,-6.30586781,mol/L
[Co++].[O-]C(=O)C([O-])=O,water,298,-3.808993953,mol/L