Solute,Solvent,Temperature_K,Solubility,Units
ClC1=C(Cl)C2(Cl)C3CO[S](=O)(=O)OCC3C1(Cl)C2(Cl)Cl,water,298,-5.945,mol/L
CC(C)(C)c1ccc(OC2CCCCC2O[S](=O)OCC#C)cc1,water,298,-5.8457,mol/L
ClC1=C(Cl)C2(Cl)C3CO[S](=O)OCC3C1(Cl)C2(Cl)Cl,water,298,-6.0976,mol/L
ClC1=C(Cl)C2(Cl)[C@H]3CO[S](=O)OC[C@H]3[C@]1(Cl)C2(Cl)Cl,water,298,-5.9019,mol/L
O=[S]1OCCO1,water,298,0.2214,mol/L
CCO[P](=S)(OCC)O[P](=S)(OCC)OCC,water,298,-4.0312,mol/L
OC(=S)c1cccnc1,water,298,-1.3801,mol/L
CCOC(=S)SC(CC(O)=O)C(O)=O,water,298,-0.9951,mol/L
CCOC(=S)SC(C)C(O)=O,water,298,-1.4489,mol/L
Cc1c(C)c(C)c(C)c(C)c1C,water,298,-5.8392,mol/L
Cc1cc(C)c(C)cc1C,water,298,-4.5862,mol/L
c1ccc(cc1)\C=C\c2ccccc2,water,298,-5.7935,mol/L
Clc1cc(Cl)c(Cl)cc1Cl,water,298,-5.5597,mol/L
Clc1c(Cl)c(Cl)c(Cl)c(Cl)c1Cl,water,298,-7.6621,mol/L
Brc1cc(Br)cc(Br)c1,water,298,-5.6004,mol/L
Brc1cc(Br)c(Br)cc1Br,water,298,-6.9931,mol/L
Nc1ccc(Cl)c(Cl)c1,water,298,-3.2458,mol/L
Oc1c(Br)cc(Br)cc1Br,water,298,-3.6745,mol/L
Nc1c(Cl)cc(Cl)cc1Cl,water,298,-3.6912,mol/L
Oc1c(Cl)cc(Cl)c(Cl)c1Cl,water,298,-4.0036,mol/L
OC(=O)\C=C\C(O)=O,water,298,-1.2196,mol/L
OC(=O)CNC(=O)c1ccccc1,water,298,-1.6793,mol/L
OCC(C(O)=O)c1ccccc1,water,298,-0.9305,mol/L
OC(=O)c1ccccc1c2ccccc2C(O)=O,water,298,-2.2839,mol/L
OCc1ccccc1O,water,298,-0.2946,mol/L
FC(F)(F)Br,water,298,-2.6678,mol/L
FC(F)(Cl)Cl,water,298,-2.6353,mol/L
FC(F)(F)Cl,water,298,-3.0647,mol/L
CCCCCCCCBr,water,298,-5.0631,mol/L
FC(F)(F)C(Cl)Br,water,298,-1.7043,mol/L
ClC1C(Cl)C(Cl)C(Cl)C(Cl)C1Cl,water,298,-6.0834,mol/L
CCCCC(CC)COC(=O)c1ccccc1C(=O)OCC(CC)CCCC,water,298,-6.9684,mol/L
CC(=O)OC[C@@H](OC(C)=O)[C@@H](OC(C)=O)[C@H](OC(C)=O)[C@@H](OC(C)=O)C=O,water,298,-2.4154,mol/L
CC(=O)c1ccc(N)cc1,water,298,-1.6058,mol/L
CC(=O)c1ccc(O)cc1,water,298,-1.1384,mol/L
CC(=O)CC(C)=O,water,298,0.2196,mol/L
N#CCC#N,water,298,0.3039,mol/L
N#CCCC#N,water,298,0.2036,mol/L
NNC(=O)c1ccncc1,water,298,0.009,mol/L
NC(=O)c1cccnc1,water,298,0.6121,mol/L
CN(C)c1nc(nc(n1)N(C)C)N(C)C,water,298,-3.3638,mol/L
CC1=CC(=O)NO1,water,298,-0.0666,mol/L
NC(=S)Nc1cccc2ccccc12,water,298,-2.5278,mol/L
NC(=S)Nc1ccccc1,water,298,-1.7898,mol/L
N(c1ccccc1)c2cccc3ccccc23,water,298,-3.5629,mol/L
Clc1cc2Oc3cc(Cl)c(Cl)cc3Oc2cc1Cl,water,298,-9.2068,mol/L
Clc1c(Cl)c(Cl)c2Oc3c(Cl)c(Cl)c(Cl)c(Cl)c3Oc2c1Cl,water,298,-12.0605,mol/L
Clc1c(Cl)c(Cl)c2Oc3ccccc3Oc2c1Cl,water,298,-8.7085,mol/L
Clc1cc(Cl)c2Oc3cc(Cl)cc(Cl)c3Oc2c1,water,298,-9.0027,mol/L
Clc1ccc2Oc3cc(Cl)ccc3Oc2c1,water,298,-7.8292,mol/L
Clc1cc2Oc3c(Cl)c(Cl)c(Cl)c(Cl)c3Oc2cc1Cl,water,298,-10.9486,mol/L
Clc1cc(Cl)c2Oc3ccccc3Oc2c1Cl,water,298,-7.5339,mol/L
Clc1ccc2Oc3c(Cl)c(Cl)c(Cl)c(Cl)c3Oc2c1,water,298,-9.4728,mol/L
Clc1cc2oc3cc(Cl)c(Cl)cc3c2cc1Cl,water,298,-8.6456,mol/L
Clc1ccc2Oc3c(Cl)c(Cl)c(Cl)cc3Oc2c1,water,298,-8.8744,mol/L
CC(=O)Nc1ccc(O)cc1,water,298,-1.0333,mol/L
Clc1ccc(cc1Cl)c2ccc(Cl)c(Cl)c2,water,298,-8.7103,mol/L
Clc1cccc(c1Cl)c2c(Cl)ccc(Cl)c2Cl,water,298,-6.7798,mol/L
CN(C)c1ccc(cc1)N=Nc2ccccc2,water,298,-5.991,mol/L
NC(=O)c1ccccc1O,water,298,-1.8233,mol/L
O=C1OC(=O)c2ccccc12,water,298,-1.3782,mol/L
Oc1ccccc1C(=O)Nc2ccccc2,water,298,-3.5885,mol/L
O=C(OOC(=O)c1ccccc1)c2ccccc2,water,298,-4.4252,mol/L
CC(=O)Nc1ccc(cc1)[S](N)(=O)=O,water,298,-1.6066,mol/L
CCC1(C(=O)NCNC1=O)c2ccccc2,water,298,-2.64,mol/L
CC(=O)Nc1ccccc1O,water,298,-2.235,mol/L
[O-][N+](=O)OCC(CO[N+]([O-])=O)O[N+]([O-])=O,water,298,-2.2163,mol/L
Cn1cnc2N(C)C(=O)N(C)C(=O)c12,water,298,-0.966,mol/L
CN1C(=O)N(C)c2nc[nH]c2C1=O,water,298,-1.3888,mol/L
CN1CC(=O)N=C1N,water,298,-0.1499,mol/L
C[C@H]1C[C@H](C)C(=O)[C@@H](C1)[C@H](O)CC2CC(=O)NC(=O)C2,water,298,-1.127,mol/L
[O-][N+](=O)C(Cl)(Cl)Cl,water,298,-2.0063,mol/L
CCC1(CCC(=O)NC1=O)c2ccccc2,water,298,-2.3374,mol/L
[O-][N+](=O)O[C@H]1CO[C@@H]2[C@@H](CO[C@H]12)O[N+]([O-])=O,water,298,-2.6328,mol/L
c1cnc2ncncc2n1,water,298,0.0343,mol/L
O=C1NNC(=O)C=C1,water,298,-1.2714,mol/L
NC(=O)c1cnccn1,water,298,-0.9142,mol/L
Cc1cc(N)nc(C)n1,water,298,-1.2843,mol/L
CCCCC1C(=O)N(N(C1=O)c2ccccc2)c3ccccc3,water,298,-3.8124,mol/L
CC(C)(S)[C@@H](N)C(O)=O,water,298,-0.1285,mol/L
OC1(CCN(CCCC(=O)c2ccc(F)cc2)CC1)c3ccc(Cl)cc3,water,298,-4.4289,mol/L
OCC(NC(=O)C(Cl)Cl)C(O)c1ccc(cc1)[N+]([O-])=O,water,298,-2.1114,mol/L
O=C1C[C@@H]2OCC=C3CN4CC[C@@]56[C@@H]4C[C@@H]3[C@@H]2[C@@H]5N1c7ccccc67,water,298,-3.3202,mol/L
CCCC(C)(COC(N)=O)COC(N)=O,water,298,-1.6669,mol/L
Cc1cc(C)nc(N[S](=O)(=O)c2ccc(N)cc2)n1,water,298,-2.2685,mol/L
CN(C)C1=C(C)N(C)N(c2ccccc2)C1=O,water,298,-0.6286,mol/L
OCCN1CCN(CCCN2c3ccccc3Sc4ccc(Cl)cc24)CC1,water,298,-4.1546,mol/L
CN(C)CCCN1c2ccccc2Sc3ccccc13,water,298,-4.3017,mol/L
N[S](=O)(=O)c1cc2c(NCN[S]2(=O)=O)cc1Cl,water,298,-2.6153,mol/L
N[S](=O)(=O)c1cc2c(NC=N[S]2(=O)=O)cc1Cl,water,298,-3.046,mol/L
CC(=O)Nc1sc(nn1)[S](N)(=O)=O,water,298,-2.3556,mol/L
CN1N(C(=O)C=C1C)c2ccccc2,water,298,-0.5642,mol/L
CC(CN1c2ccccc2Sc3ccccc13)N(C)C,water,298,-4.2597,mol/L
[O-][N+](=O)c1sc(nc1)N2CCNC2=O,water,298,-3.2169,mol/L
CCOc1ccc(NC(C)=O)cc1,water,298,-2.3692,mol/L
Nc1ccc(cc1)[S](N)(=O)=O,water,298,-1.361,mol/L
OCCN1CCN(CCCN2c3ccccc3Sc4ccc(cc24)C(F)(F)F)CC1,water,298,-4.1488,mol/L
Nc1ncnc2n(ccc12)C3OC(CO)C(O)C3O,water,298,-1.9515,mol/L
Nc1ccc(cc1)[S](=O)(=O)Nc2sccn2,water,298,-2.4248,mol/L
CCCC(C)C1(CC=C)C(=O)NC(=S)NC1=O,water,298,-3.4585,mol/L
COc1ccc(N[S](=O)(=O)c2ccc(N)cc2)nn1,water,298,-1.5903,mol/L
O=C1N[S](=O)(=O)c2ccccc12,water,298,-1.6608,mol/L
Cn1cnc2N(C)C(=O)NC(=O)c12,water,298,-2.7372,mol/L
O=C1NC(=O)c2ccccc12,water,298,-2.6114,mol/L
O=C1Oc2ccccc2C=C1,water,298,-1.886,mol/L
CCCNC(=O)N[S](=O)(=O)c1ccc(Cl)cc1,water,298,-3.0305,mol/L
COc1cc(CC=C)ccc1O,water,298,-1.5622,mol/L
CC(=O)OCC(COC(C)=O)OC(C)=O,water,298,-0.5754,mol/L
CN1CCN(CCCN2c3ccccc3Sc4ccc(cc24)C(F)(F)F)CC1,water,298,-4.5238,mol/L
COc1cc(N[S](=O)(=O)c2ccc(N)cc2)nc(OC)n1,water,298,-2.9565,mol/L
COC1CC(=O)C[C@@H](C)[C@]12Oc3c(Cl)c(OC)cc(OC)c3C2=O,water,298,-4.611,mol/L
CCCCC1C(=O)N(N(C1=O)c2ccc(O)cc2)c3ccccc3,water,298,-3.7329,mol/L
N[S](=O)(=O)c1cc2c(NC(N[S]2(=O)=O)C(Cl)Cl)cc1Cl,water,298,-2.6774,mol/L
CC(=O)N[S](=O)(=O)c1ccc(N)cc1,water,298,-1.234,mol/L
Cc1sc(N[S](=O)(=O)c2ccc(N)cc2)nn1,water,298,-2.4107,mol/L
OCC(O)C(O)CO,water,298,0.6985,mol/L
CN[C@@H](C)[C@H](O)c1ccccc1,water,298,-0.4147,mol/L
O=C1N=CN=C2NNC=C12,water,298,-2.3788,mol/L
CCCCNC(=O)N[S](=O)(=O)c1ccc(N)cc1,water,298,-2.1782,mol/L
COc1cc2N3C4[C@@H]5C(CC3=O)OCC=C6CN7CC[C@]4([C@@H]7C[C@H]56)c2cc1OC,water,298,-2.0909,mol/L
CN1C(=O)CN=C(c2ccccc2)c3cc(Cl)ccc13,water,298,-3.7555,mol/L
Cc1ncc(n1CCO)[N+]([O-])=O,water,298,-1.2557,mol/L
CCOc1ccc2nc(sc2c1)[S](N)(=O)=O,water,298,-3.8101,mol/L
Nc1ccc(cc1)[S](=O)(=O)Nc2ccnn2c3ccccc3,water,298,-2.3213,mol/L
Oc1cc(O)c2C(=O)C[C@H](Oc2c1)c3ccc(O)c(O)c3,water,298,-3.6147,mol/L
Cc1cnc(N[S](=O)(=O)c2ccc(N)cc2)nc1,water,298,-2.82,mol/L
COc1cnc(N[S](=O)(=O)c2ccc(N)cc2)nc1,water,298,-2.5843,mol/L
Cc1ccc(cc1)[S](=O)(=O)NC(=O)NC2CCCCC2,water,298,-4.207,mol/L
Cc1onc(N[S](=O)(=O)c2ccc(N)cc2)c1,water,298,-2.6183,mol/L
COc1cc(Cc2cnc(N)nc2N)cc(OC)c1OC,water,298,-2.8608,mol/L
CC(C(O)=O)c1cccc(c1)C(=O)c2ccccc2,water,298,-3.6977,mol/L
COc1ccc2cc(ccc2c1)C(C)C(O)=O,water,298,-4.1608,mol/L
CC(=O)OCC(=O)[C@H]1CC[C@H]2[C@@H]3CCC4=CC(=O)CC[C@]4(C)[C@H]3CC[C@]12C,water,298,-4.6301,mol/L
C[C@]12C[C@H](O)[C@@]3(F)[C@@H](CCC4=CC(=O)C=C[C@]34C)[C@@H]1C[C@@H](O)[C@]2(O)C(=O)CO,water,298,-3.6929,mol/L
CCCCC(=O)O[C@@]1([C@@H](C)C[C@H]2[C@@H]3CCC4=CC(=O)C=C[C@]4(C)[C@@]3(F)[C@@H](O)C[C@]12C)C(=O)CO,water,298,-4.7101,mol/L
Nc1ccccc1[N+]([O-])=O,water,298,-1.973,mol/L
Nc1ccccc1O,water,298,-0.7369,mol/L
Nc1cc(cc(c1O)[N+]([O-])=O)[N+]([O-])=O,water,298,-2.4862,mol/L
Nc1cccc(c1)[N+]([O-])=O,water,298,-2.0611,mol/L
Nc1ccc(cc1)[N+]([O-])=O,water,298,-2.2782,mol/L
Nc1ccc(O)cc1,water,298,-0.8338,mol/L
Nc1cccc(O)c1,water,298,-0.6066,mol/L
Oc1ccc(cc1[N+]([O-])=O)[N+]([O-])=O,water,298,-2.5976,mol/L
Oc1ccccc1[N+]([O-])=O,water,298,-1.7454,mol/L
Cc1ccc(O)c(c1)[N+]([O-])=O,water,298,-2.3837,mol/L
COc1cc(C=O)ccc1O,water,298,-1.1409,mol/L
Oc1ccc(C=O)cc1,water,298,-0.9762,mol/L
Oc1cc(ccc1[N+]([O-])=O)[N+]([O-])=O,water,298,-2.6796,mol/L
Oc1cc(F)ccc1[N+]([O-])=O,water,298,-2.05,mol/L
Cc1cc(cc(c1O)[N+]([O-])=O)[N+]([O-])=O,water,298,-3.0003,mol/L
Oc1c(cccc1[N+]([O-])=O)[N+]([O-])=O,water,298,-2.7668,mol/L
Oc1cccc(O)c1[N+]([O-])=O,water,298,-2.0734,mol/L
Oc1ccc(cc1[N+]([O-])=O)c2ccccc2,water,298,-4.4101,mol/L
CCC(C)c1ccc(O)c(c1)[N+]([O-])=O,water,298,-3.8403,mol/L
Nc1ccc(C(O)=O)c(O)c1,water,298,-1.9572,mol/L
OC(=O)c1ccccc1O,water,298,-1.79,mol/L
Nc1cccc(c1)C(O)=O,water,298,-1.3663,mol/L
OC(=O)c1cccc(O)c1,water,298,-1.2799,mol/L
OC(=O)c1ccc(O)c(O)c1,water,298,-0.9278,mol/L
OC(=O)c1ccc(O)cc1,water,298,-1.4413,mol/L
Nc1ccccc1C(O)=O,water,298,-1.5931,mol/L
COc1cc(ccc1O)C(O)=O,water,298,-2.0496,mol/L
Nc1cc(Cl)cc(C(O)=O)c1Cl,water,298,-2.4688,mol/L
Nc1ccc(cc1)C(O)=O,water,298,-1.3511,mol/L
OC(=O)c1c(O)cccc1O,water,298,-1.2074,mol/L
OC(=O)c1cc(O)ccc1O,water,298,-1.4889,mol/L
Oc1cccc(C=O)c1,water,298,-0.6475,mol/L
CCCOC(=O)c1ccc(O)cc1,water,298,-2.5568,mol/L
CCOC(=O)c1ccc(N)cc1,water,298,-2.1007,mol/L
CCCOC(=O)c1ccc(N)cc1,water,298,-2.3281,mol/L
CCCCOC(=O)c1ccc(O)cc1,water,298,-2.9723,mol/L
COC(=O)c1ccc(O)cc1,water,298,-1.7843,mol/L
COC(=O)c1ccccc1O,water,298,-1.313,mol/L
CCOC(=O)c1ccc(O)cc1,water,298,-2.3089,mol/L
Nc1ccc(c(O)c1)C(=O)Oc2ccccc2,water,298,-4.5152,mol/L
COC(=O)c1ccc(N)cc1,water,298,-1.5974,mol/L
CCCCCOC(=O)c1ccc(N)cc1,water,298,-3.3499,mol/L
CCCCCCCOC(=O)c1ccc(N)cc1,water,298,-4.6001,mol/L
CCCCCCCCOC(=O)c1ccc(N)cc1,water,298,-5.3999,mol/L
N[S](=O)(=O)c1cc(C(O)=O)c(NCc2occc2)cc1Cl,water,298,-3.6556,mol/L
CCOC(C)OCC,water,298,-0.4291,mol/L
COCOC,water,298,0.506,mol/L
C1OCOCO1,water,298,0.2884,mol/L
CC1OC(C)OC(C)O1,water,298,-0.0719,mol/L
CCOCOCC,water,298,-0.1726,mol/L
C[C@@H]1C[C@H]2[C@@H]3CCC4=CC(=O)C=C[C@]4(C)[C@@]3(F)[C@@H](O)C[C@]2(C)[C@@]1(O)C(=O)CO,water,298,-3.6444,mol/L
CC(=O)OCC(=O)[C@@]1(O)CC[C@H]2[C@@H]3CCC4=CC(=O)CC[C@]4(C)[C@H]3[C@@H](O)C[C@]12C,water,298,-4.4577,mol/L
CC(=O)OCC(=O)[C@@]1(O)CC[C@H]2[C@@H]3CCC4=CC(=O)CC[C@]4(C)[C@H]3C(=O)C[C@]12C,water,298,-4.3037,mol/L
C[C@]12C[C@H](O)[C@H]3[C@@H](CCC4=CC(=O)CC[C@]34C)[C@@H]1CC[C@@H]2C(=O)CO,water,298,-3.2408,mol/L
C[C@]12CCC(=O)C=C1CC[C@H]3[C@@H]4CC[C@](O)(C(=O)CO)[C@@]4(C)C[C@H](O)[C@H]23,water,298,-3.0541,mol/L
C[C@]12C[C@H](O)[C@H]3[C@@H](CCC4=CC(=O)C=C[C@]34C)[C@@H]1CC[C@]2(O)C(=O)CO,water,298,-3.2085,mol/L
CC(=O)OCC(=O)[C@@]1(O)CC[C@H]2[C@@H]3CCC4=CC(=O)C=C[C@]4(C)[C@H]3[C@@H](O)C[C@]12C,water,298,-4.3692,mol/L
C[C@]12CCC(=O)C=C1CC[C@H]3[C@@H]4CC[C@](O)(C(=O)CO)[C@@]4(C)CC(=O)[C@H]23,water,298,-3.1097,mol/L
CC(=O)[C@H]1CC[C@H]2[C@@H]3CCC4=CC(=O)CC[C@]4(C)[C@H]3CC[C@]12C,water,298,-4.5526,mol/L
C[C@]1(O)CC[C@H]2[C@@H]3CCC4=CC(=O)CC[C@]4(C)[C@H]3CC[C@]12C,water,298,-3.9505,mol/L
C[C@]12CC[C@H]3[C@@H](CCC4=CC(=O)CC[C@]34C)[C@@H]1CC[C@@H]2O,water,298,-4.0908,mol/L
C[C@]12CC[C@H]3[C@@H](CCC4=CC(=O)CC[C@]34C)[C@@H]1CCC2=O,water,298,-3.6949,mol/L
C[C@]12CC[C@H]3[C@@H](CCC4=CC(=O)CC[C@]34C)[C@@H]1CC[C@@H]2C(=O)CO,water,298,-3.7446,mol/L
CC(=O)OCC(=O)[C@@]1(O)[C@@H](C[C@H]2[C@@H]3CCC4=CC(=O)C=C[C@]4(C)[C@@]3(F)[C@@H](O)C[C@]12C)OC(C)=O,water,298,-4.1297,mol/L
CC(=O)[C@@]1(O)CC[C@H]2[C@@H]3CCC4=CC(=O)CC[C@]4(C)[C@H]3CC[C@]12C,water,298,-4.7076,mol/L
C[C@]12C[C@H](O)[C@@]3(F)[C@@H](CCC4=CC(=O)CC[C@]34C)[C@@H]1CC[C@]2(O)C(=O)CO,water,298,-3.4342,mol/L
C[C@H]1C[C@H]2[C@@H]3CCC4=CC(=O)C=C[C@]4(C)[C@@]3(F)[C@@H](O)C[C@]2(C)[C@@]1(O)C(=O)CO,water,298,-3.771,mol/L
C[C@H]1C[C@H]2[C@@H]3CC[C@](O)(C(C)=O)[C@@]3(C)C[C@H](O)[C@]2(F)[C@@]4(C)C=CC(=O)C=C14,water,298,-4.0986,mol/L
C[C@@H]1C[C@H]2[C@@H]3CCC4=CC(=O)C=C[C@]4(C)[C@@]3(F)[C@@H](O)C[C@]2(C)[C@@]1(O)C(=O)COC(C)=O,water,298,-4.9,mol/L
FC1=CNC(=O)NC1=O,water,298,-1.0689,mol/L
CC1=CNC(=O)NC1=O,water,298,-1.5187,mol/L
O=C1NC=CC(=O)N1,water,298,-1.4933,mol/L
O=C1CNC(=O)N1,water,298,-0.4016,mol/L
CN1C=CC(=O)NC1=O,water,298,-0.7998,mol/L
CCC(Br)(CC)C(=O)NC(N)=O,water,298,-2.8525,mol/L
CCC1(C(=O)NC(=O)NC1=O)c2ccccc2,water,298,-2.3206,mol/L
CCC1(CC)C(=O)NC(=O)N(C)C1=O,water,298,-2.0005,mol/L
CCC1(C(=O)NC(=O)NC1=O)C2=CCCCC2,water,298,-2.1693,mol/L
C=CCC1(CC=C)C(=O)NC(=O)NC1=O,water,298,-2.0608,mol/L
CN1C(=O)NC(=O)C(C)(C1=O)C2=CCCCC2,water,298,-2.7349,mol/L
CCC1(CCC(C)C)C(=O)NC(=O)NC1=O,water,298,-2.5743,mol/L
CCC1(CC)C(=O)NC(=O)NC1=O,water,298,-1.3926,mol/L
CCCC(C)C1(CC)C(=O)NC(=O)NC1=O,water,298,-2.5229,mol/L
CCC1(C(C)C)C(=O)NC(=O)NC1=O,water,298,-2.2144,mol/L
CC(C)C1(CC=C)C(=O)NC(=O)NC1=O,water,298,-1.712,mol/L
C=CCC1(C(=O)NC(=O)NC1=O)c2ccccc2,water,298,-2.3464,mol/L
CCCCCC1(CC)C(=O)NC(=O)NC1=O,water,298,-2.1757,mol/L
CCCC1(CCC)C(=O)NC(=O)NC1=O,water,298,-2.5487,mol/L
Oc1cccnc1,water,298,-0.4557,mol/L
Oc1cccc2cccnc12,water,298,-2.4168,mol/L
[O-]c1cccc2[nH+]cccc12,water,298,-2.5417,mol/L
Oc1ccc2ncccc2c1,water,298,-2.1618,mol/L
Clc1nc(Cl)nc(Nc2ccccc2Cl)n1,water,298,-4.5371,mol/L
CCNc1nc(Cl)nc(NCC)n1,water,298,-4.1256,mol/L
CC(C)Nc1nc(Cl)nc(NC(C)C)n1,water,298,-4.4267,mol/L
CCNc1nc(NC(C)C)nc(SC)n1,water,298,-3.0365,mol/L
CCNc1nc(NC(C)(C)C)nc(SC)n1,water,298,-3.9847,mol/L
CCNc1nc(NCC)nc(SC)n1,water,298,-2.6758,mol/L
COc1nc(NC(C)C)nc(NC(C)C)n1,water,298,-2.4777,mol/L
CCNc1nc(Cl)nc(NC(C)C)n1,water,298,-3.8867,mol/L
CCNc1nc(Cl)nc(n1)N(CC)CC,water,298,-4.0601,mol/L
CC(C)Nc1nc(N)nc(Cl)n1,water,298,-2.7063,mol/L
CSc1nc(NC(C)C)nc(NC(C)C)n1,water,298,-3.8642,mol/L
CCNc1nc(Cl)nc(NC(C)(C)C#N)n1,water,298,-3.151,mol/L
CCNc1nc(NC(C)(C)C)nc(OC)n1,water,298,-3.2388,mol/L
Brc1ccccn1,water,298,-0.8806,mol/L
Clc1ccccn1,water,298,-0.7542,mol/L
NC1(CCCC1)C(O)=O,water,298,-0.4122,mol/L
CSCCC(N)C(O)=O,water,298,-0.421,mol/L
NC(Cc1ccccc1)C(O)=O,water,298,-1.0657,mol/L
CC(C)C(N)C(O)=O,water,298,-0.3016,mol/L
CCC(N)C(O)=O,water,298,0.3109,mol/L
CCCC(N)C(O)=O,water,298,-0.0687,mol/L
NCC(O)=O,water,298,0.5207,mol/L
CC(N)C(O)=O,water,298,0.265,mol/L
OC(=O)C1CCCN1,water,298,0.1483,mol/L
NC(CO)C(O)=O,water,298,0.6068,mol/L
OC1CNC(C1)C(O)=O,water,298,0.4398,mol/L
OC(=O)c1cccc(c1)C(O)=O,water,298,-3.2204,mol/L
OC(=O)c1cccnc1C(O)=O,water,298,-1.1816,mol/L
OC(=O)c1ccnc(c1)C(O)=O,water,298,-1.8268,mol/L
OC(=O)c1ccc(nc1)C(O)=O,water,298,-2.1296,mol/L
OC(=O)c1cccc(n1)C(O)=O,water,298,-1.5241,mol/L
OC(=O)c1ccncc1C(O)=O,water,298,-1.8538,mol/L
OC(=O)c1cncc(c1)C(O)=O,water,298,-2.223,mol/L
OC(=O)c1cccnc1,water,298,-0.835,mol/L
OC(=O)c1ccncc1,water,298,-1.3743,mol/L
CCCCCCCC[S](=O)(=O)N[S](=O)(=O)CCCCCCCC,water,298,-3.9145,mol/L
NC(=O)CCl,water,298,-0.0166,mol/L
NC(=O)CBr,water,298,0.0643,mol/L
CCC(Cl)(CC)C(N)=O,water,298,-1.0289,mol/L
CCC(Br)(CC)C(N)=O,water,298,-1.0376,mol/L
NC(=O)C(Cl)CCl,water,298,-0.5138,mol/L
CN(C(C)=O)c1ccccc1,water,298,-0.951,mol/L
CC(C)N(C(=O)CCl)c1ccccc1,water,298,-2.4806,mol/L
CCc1cccc(CC)c1N(COC)C(=O)CCl,water,298,-3.0508,mol/L
CCCCOCN(C(=O)CCl)c1c(CC)cccc1CC,water,298,-4.1322,mol/L
CCOCN(C(=O)CCl)c1c(C)cccc1CC,water,298,-3.0827,mol/L
CC(C)(C)CO,water,298,-0.4,mol/L
CN=C=S,water,298,-1.0,mol/L
C1OCOCO1,water,298,0.29,mol/L
CC(N)=O,water,298,1.58,mol/L
NC(=O)C=C,water,298,0.95,mol/L
NC(N)=S,water,298,0.04,mol/L
COC(=O)C(=O)OC,water,298,-0.29,mol/L
NCC(O)=O,water,298,0.92,mol/L
NCCC(O)=O,water,298,0.79,mol/L
CC(C)(N)C(O)=O,water,298,0.12,mol/L
C\C=C\C(O)=O,water,298,-0.01,mol/L
OC(O)C(Cl)(Cl)Cl,water,298,1.7,mol/L
CC(C)C1CCC(C)CC1O,water,298,-2.54,mol/L
NC(=N)NC#N,water,298,-0.31,mol/L
OC1COC(O)C(O)C1O,water,298,0.52,mol/L
CCCCOC(N)=O,water,298,-0.66,mol/L
CC1=CCC(CC1)C(C)(C)O,water,298,-1.91,mol/L
CC(N)C(O)=O,water,298,0.22,mol/L
CC(C)COC(N)=O,water,298,-0.3,mol/L
CC(=C)C1CC=C(C)C(O)C1,water,298,-1.72,mol/L
S=C1NCCN1,water,298,-0.71,mol/L
CC(C)(C)OC(N)=O,water,298,0.1,mol/L
CCCCCCCCCCCCCCO,water,298,-6.05,mol/L
NCCCCCC(O)=O,water,298,0.59,mol/L
OCC(O)C(O)C(O)C(O)CO,water,298,0.07,mol/L
CC1(C)C2CCC1(C)C(O)C2,water,298,-2.75,mol/L
CCC(N)C(O)=O,water,298,0.26,mol/L
CC1OC(C)OC(C)OC(C)O1,water,298,-2.93,mol/L
OCC1OC(O)C(O)C(O)C1O,water,298,0.74,mol/L
CCNC(=S)NCC,water,298,-1.46,mol/L
C\C=C\C=C\C(O)=O,water,298,-1.77,mol/L
NC(CO)C(O)=O,water,298,-0.02,mol/L
OC(=O)CC(O)=O,water,298,1.17,mol/L
OC(=O)C(Cl)(Cl)Cl,water,298,0.73,mol/L
CC(C)C(N)C(O)=O,water,298,-0.3,mol/L
CCCCCCCCCC(O)=O,water,298,-3.45,mol/L
NC(N)=N[N+]([O-])=O,water,298,-1.37,mol/L
OC(=O)C1CCCN1,water,298,0.15,mol/L
CCCCC(N)C(O)=O,water,298,-1.06,mol/L
CC(C)CC(N)C(O)=O,water,298,-1.13,mol/L
CC1(C)C2CCC1(C)C(=O)C2,water,298,-2.09,mol/L
ClC(Cl)(Cl)C(Cl)(Cl)Cl,water,298,-3.94,mol/L
NC(CS)C(O)=O,water,298,0.36,mol/L
OC(=O)CCCC(O)=O,water,298,1.0,mol/L
CCCCCCCCCCCC(O)=O,water,298,-4.62,mol/L
OC(=O)/C=C/C(O)=O,water,298,-1.22,mol/L
OC(=O)CCC(O)=O,water,298,-0.17,mol/L
CC(C)(S)C(N)C(O)=O,water,298,-0.13,mol/L
OC1CNC(C1)C(O)=O,water,298,0.44,mol/L
CC(O)C(N)C(O)=O,water,298,-0.09,mol/L
CCN(N=O)C(N)=O,water,298,-0.96,mol/L
CSCCC(N)C(O)=O,water,298,-0.66,mol/L
OC(=O)CCCCC(O)=O,water,298,-0.82,mol/L
CCCCCCCCCCCCCC(O)=O,water,298,-5.33,mol/L
NC1=N[NH]C=N1,water,298,0.52,mol/L
NC(CC(N)=O)C(O)=O,water,298,-0.72,mol/L
CCCCCCCCCCCCCCCC(O)=O,water,298,-6.81,mol/L
OC(CC(O)=O)C(O)=O,water,298,0.64,mol/L
OC(=O)CCCCCCCC(O)=O,water,298,-2.02,mol/L
CN(C)C(=S)SSC(=S)N(C)C,water,298,-3.9,mol/L
CC(C)N(C(C)C)C(=O)SC\C(Cl)=C\Cl,water,298,-4.29,mol/L
OC1=CC=CC=C1,water,298,-0.04,mol/L
CCCCCCCCCCCCCCCC(=O)OC,water,298,-7.83,mol/L
NC(CCC(N)=O)C(O)=O,water,298,-0.54,mol/L
NC(CCC(O)=O)C(O)=O,water,298,-1.23,mol/L
CNC(=O)O\N=C\C(C)(C)SC,water,298,-1.39,mol/L
ClC1C(Cl)C(Cl)C(Cl)C(Cl)C1Cl,water,298,-6.08,mol/L
CCC1(CC)C(=O)NCC(C)C1=O,water,298,-0.38,mol/L
CC1=CC(=O)NO1,water,298,-0.07,mol/L
[O-][N+](=O)N1CN(CN(C1)[N+]([O-])=O)[N+]([O-])=O,water,298,-3.57,mol/L
NC(CCCNC(N)=N)C(O)=O,water,298,0.0,mol/L
CCCCCCCCCCCCCCCCCC(=O)OC,water,298,-9.0,mol/L
CNC(=O)O\N=C(\C)SC,water,298,-1.21,mol/L
[O-][N+](=O)OC1COC2C(COC12)O[N+]([O-])=O,water,298,-2.63,mol/L
CC1=CC=C(O)C=C1,water,298,-0.7,mol/L
CC1=C(O)C=CC=C1,water,298,-0.64,mol/L
CC(C)N(C(C)C)C(=O)SCC(Cl)=C(Cl)Cl,water,298,-4.88,mol/L
CC1(C)C(=O)NC(=O)NC1=O,water,298,-1.74,mol/L
NC1=CC=C(N)C=C1,water,298,-0.38,mol/L
NC1=CC(=CC=C1)N,water,298,0.51,mol/L
NC1=C(N)C=CC=C1,water,298,-0.42,mol/L
CC1=CC=C(CO)C=C1,water,298,-1.2,mol/L
CN(C)C1=NC(=O)N(C2CCCCC2)C(=O)N1C,water,298,0.12,mol/L
CN(C)NC(=O)CCC(O)=O,water,298,-0.2,mol/L
O=C1NC(=O)C2(CC2)C(=O)N1,water,298,-1.89,mol/L
OC1=CC=C(O)C=C1,water,298,-0.48,mol/L
CCCCCCCCCCNC(=O)NC1CCCCC1,water,298,-2.81,mol/L
OC1=CC(=CC=C1)O,water,298,0.78,mol/L
OC1=C(O)C=CC=C1,water,298,0.62,mol/L
CCC1=CC=C(O)C=C1,water,298,-1.4,mol/L
CCN(CC)C(=S)SSC(=S)N(CC)CC,water,298,-3.0,mol/L
CCCC(C)(COC(N)=O)COC(N)=O,water,298,-1.81,mol/L
CCC1(C)C(=O)NC(=O)NC1=O,water,298,-1.23,mol/L
NC1=NC(=O)NC=C1,water,298,-1.16,mol/L
CC1=CC(=CC(=C1)O)C,water,298,-1.4,mol/L
CC1=C(C)C=C(O)C=C1,water,298,-1.41,mol/L
CC1=CC(=C(C)C=C1)O,water,298,-1.54,mol/L
OCC1=C(O)C=CC=C1,water,298,-0.29,mol/L
CC1=C(C)C(=CC=C1)O,water,298,-1.43,mol/L
CC1=CC=CC(=C1O)C,water,298,-1.31,mol/L
O=C1NNC(=O)C=C1,water,298,-1.59,mol/L
O=C1NC=CC(=O)N1,water,298,-1.5,mol/L
O=C1NC(=O)C2(CCC2)C(=O)N1,water,298,-1.66,mol/L
CC1=CC(=C(C)C=C1C)C,water,298,-3.84,mol/L
NC(=O)C1=CC=CC=C1,water,298,-0.95,mol/L
ClC1=CC=C(Cl)C=C1,water,298,-3.35,mol/L
OC(=O)C1=CC=CC=C1,water,298,-1.55,mol/L
CCC1(CC)C(=O)NC(=O)NC1=O,water,298,-1.42,mol/L
OC1=CC=C(C=O)C=C1,water,298,-1.16,mol/L
CC1(CC=C)C(=O)NC(=O)NC1=O,water,298,-1.16,mol/L
OC1=CC=CC(=C1)C=O,water,298,-1.23,mol/L
NC(=O)C1=CC=CN=C1,water,298,0.61,mol/L
OC(=O)CC(O)(CC(O)=O)C(O)=O,water,298,0.51,mol/L
OC(=O)C1=CN=CC=C1,water,298,-0.85,mol/L
NC(=O)C1=CN=CC=N1,water,298,-0.91,mol/L
CC1=CC(=C(C)C(=C1)C)O,water,298,-2.25,mol/L
CC1=CC(=C(O)C(=C1)C)C,water,298,-2.06,mol/L
CC1=C(O)C=CC(=C1)Cl,water,298,-1.55,mol/L
CC1=C(Cl)C=CC(=C1)O,water,298,-1.46,mol/L
CC1=CNC(=O)NC1=O,water,298,-1.52,mol/L
OC1=CC(=CC(=C1)O)O,water,298,-1.05,mol/L
O=C1NC(=S)NC=C1,water,298,-2.26,mol/L
CCCC1(CC)C(=O)NC(=O)NC1=O,water,298,-1.49,mol/L
OC1=C(O)C(=CC=C1)O,water,298,0.7,mol/L
CCC(C)C1=CC=C(O)C=C1,water,298,-2.19,mol/L
CCC1(C(C)C)C(=O)NC(=O)NC1=O,water,298,-2.21,mol/L
CCC1(CC=C)C(=O)NC(=O)NC1=O,water,298,-1.61,mol/L
CC1=C(C)C(=C(C)C(=C1)C)C,water,298,-3.98,mol/L
CC(=O)NC1=CC=CC=C1,water,298,-1.39,mol/L
FC1=CNC(=O)NC1=O,water,298,-1.04,mol/L
CCC1(CC)C(=O)NC(=O)N(C)C1=O,water,298,-2.1,mol/L