Solute,Solvent,Temperature_K,Solubility,Units
CCO[P](=O)(Sc1ccccc1)Sc2ccccc2,water,298,-3.331,mol/L
CCCCNC(=O)n1c(NC(=O)OC)nc2ccccc12,water,298,-4.883,mol/L
COc1ccc(NC(=O)N(C)C)cc1Cl,water,298,-2.581,mol/L
CSC1=NN=C(C(=O)N1N)C(C)(C)C,water,298,-2.245,mol/L
CO[P](=S)(Oc1cc(Cl)c(Br)cc1Cl)c2ccccc2,water,298,-7.138,mol/L
CCO[P](=O)(NC(C)C)Oc1ccc(SC)c(C)c1,water,298,-2.965,mol/L
CNC(=O)O\N=C(SC)\C(=O)N(C)C,water,298,0.106,mol/L
CCO[P](=S)(OCC)Oc1cc(C)nc(n1)N(CC)CC,water,298,-4.924,mol/L
CCO[P](=S)(OCC)Oc1ncn(n1)c2ccccc2,water,298,-4.102,mol/L
CCCO[P](=S)(OCCC)SCC(=O)N1CCCCC1C,water,298,-4.15,mol/L
CC(C)N1C(=O)c2ccccc2N[S]1(=O)=O,water,298,-2.682,mol/L
CCO[P](=S)(NC(C)C)Oc1ccccc1C(=O)OC(C)C,water,298,-4.194,mol/L
CC(C)O[P](=O)(OC(C)C)SCc1ccccc1,water,298,-2.858,mol/L
Clc1c(Cl)c(Cl)c2C(=O)OCc2c1Cl,water,298,-5.037,mol/L
CCN(CC)C(=O)SCc1ccc(Cl)cc1,water,298,-3.964,mol/L
CCN(CC)c1nc(C)cc(O[P](=S)(OC)OC)n1,water,298,-4.133,mol/L
CO[P](=O)(NC(C)=O)SC,water,298,0.65,mol/L
CC12CC1(C)C(=O)N(C2=O)c3cc(Cl)cc(Cl)c3,water,298,-4.8,mol/L
CCNc1nc(NC(C)(C)C)nc(OC)n1,water,298,-3.239,mol/L
CC(C)c1ccc(NC(=O)N(C)C)cc1,water,298,-3.536,mol/L
Fc1cccc(F)c1C(=O)NC(=O)Nc2ccc(Cl)cc2,water,298,-6.015,mol/L
CCO[P](=O)(OCC)SCN1N=Nc2ccccc2C1=O,water,298,-1.993,mol/L
CCCS[P](=O)(OCC)Oc1ccc(Br)cc1Cl,water,298,-4.125,mol/L
CCO[P](=S)(OCC)Oc1nn(C(C)C)c(Cl)n1,water,298,-3.32,mol/L
COC(=O)c1cc(Oc2ccc(Cl)cc2Cl)ccc1[N+]([O-])=O,water,298,-5.934,mol/L
CCOc1cc(Oc2ccc(cc2Cl)C(F)(F)F)ccc1[N+]([O-])=O,water,298,-6.558,mol/L
CC(C)(C)C(=O)C(Oc1ccc(Cl)cc1)n2cncn2,water,298,-3.614,mol/L
CC(C)OC(=O)C(C(=O)OC(C)C)=C1SCCS1,water,298,-3.782,mol/L
COC(=O)C(C)Oc1ccc(Oc2ccc(Cl)cc2Cl)cc1,water,298,-3.834,mol/L
CC(C)C(C(=O)OC(C#N)c1cccc(Oc2ccccc2)c1)c3ccc(Cl)cc3,water,298,-7.243,mol/L
CC1(C)C(C=C(Cl)Cl)C1C(=O)OC(C#N)c2cccc(Oc3ccccc3)c2,water,298,-8.017,mol/L
CC1(C)[C@@H](C=C(Cl)Cl)[C@H]1C(=O)OCc2cccc(Oc3ccccc3)c2,water,298,-6.99,mol/L
CC(C)(C)C(O)C(Oc1ccc(cc1)c2ccccc2)n3cncn3,water,298,-4.829,mol/L
CC(C)(C)C(O)C(Oc1ccc(Cl)cc1)n2cncn2,water,298,-3.392,mol/L
COCC(=O)N(C(C)C(=O)OC)c1c(C)cccc1C,water,298,-1.601,mol/L
CSC(/C)=N/OC(=O)N(C)SN(C)C(=O)O\N=C(/C)SC,water,298,-4.269,mol/L
CCCCOC(=O)N(C)SN(C)C(=O)Oc1cccc2CC(C)(C)Oc12,water,298,-4.583,mol/L
CCCN(CCOc1c(Cl)cc(Cl)cc1Cl)C(=O)n2ccnc2,water,298,-4.044,mol/L
CC(C)C(C(=O)OC(C#N)c1cccc(Oc2ccccc2)c1)c3ccc(OC(F)F)cc3,water,298,-6.876,mol/L
Nc1c(Cl)c(Oc2ccccc2)ccc1[N+]([O-])=O,water,298,-5.025,mol/L
COC(=O)c1ccccc1[S](=O)(=O)NC(=O)Nc2nc(C)cc(C)n2,water,298,-3.084,mol/L
COC(=O)c1ccccc1[S](=O)(=O)NC(=O)Nc2nc(C)nc(OC)n2,water,298,-1.604,mol/L
CC(C)(C)C(O)C(Cc1ccc(Cl)cc1Cl)n2cncn2,water,298,-4.562,mol/L
Fc1cccc(F)c1C(=O)NC(=O)Nc2cc(Cl)c(F)c(Cl)c2F,water,298,-7.28,mol/L
CCOC(=O)c1ccccc1[S](=O)(=O)NC(=O)Nc2nc(Cl)cc(OC)n2,water,298,-4.576,mol/L
c1ccc(cc1)c2ccccc2,water,298,-4.347,mol/L
Brc1ccc(cc1)c2ccccc2,water,298,-5.553,mol/L
Cc1ccc(cc1)c2ccccc2,water,298,-4.618,mol/L
Clc1cccc(c1)c2cccc(Cl)c2,water,298,-5.798,mol/L
Clc1ccc(cc1)c2ccc(Cl)cc2,water,298,-6.556,mol/L
Clc1c(Cl)c(Cl)c(c(Cl)c1Cl)c2c(Cl)c(Cl)c(Cl)c(Cl)c2Cl,water,298,-10.827,mol/L
Clc1ccccc1c2ccccc2,water,298,-4.592,mol/L
Clc1cccc(c1)c2ccccc2,water,298,-4.716,mol/L
Clc1ccc(cc1)c2ccccc2,water,298,-5.149,mol/L
Clc1cc(Cl)c(Cl)c(c1Cl)c2c(Cl)c(Cl)cc(Cl)c2Cl,water,298,-9.466,mol/L
Clc1ccc(c(Cl)c1)c2ccc(Cl)cc2Cl,water,298,-6.732,mol/L
Clc1ccc(cc1Cl)c2ccccc2,water,298,-6.39,mol/L
Clc1ccc(cc1)c2ccc(Cl)cc2Cl,water,298,-5.979,mol/L
Clc1ccccc1c2ccccc2Cl,water,298,-5.081,mol/L
Clc1cc(Cl)c(cc1Cl)c2ccccc2,water,298,-6.199,mol/L
Clc1cccc(Cl)c1c2c(Cl)cccc2Cl,water,298,-7.39,mol/L
Clc1cccc(c2ccccc2)c1Cl,water,298,-5.35,mol/L
Clc1ccc(cc1)c2cc(Cl)ccc2Cl,water,298,-6.256,mol/L
Clc1c(Cl)c(Cl)c(c2ccccc2)c(Cl)c1Cl,water,298,-7.911,mol/L
Clc1cccc(c1)c2ccccc2Cl,water,298,-5.585,mol/L
Clc1ccc(cc1Cl)c2cc(Cl)c(Cl)cc2Cl,water,298,-7.387,mol/L
Clc1ccc(c(Cl)c1)c2ccc(Cl)c(Cl)c2,water,298,-6.9,mol/L
Clc1ccc(Cl)c(c1)c2ccc(Cl)c(Cl)c2,water,298,-6.853,mol/L
Clc1ccc(cc1Cl)c2ccc(Cl)c(Cl)c2,water,298,-8.71,mol/L
Clc1ccc(cc1)c2cc(Cl)c(Cl)cc2Cl,water,298,-7.77,mol/L
Clc1ccc(cc1)c2ccc(Cl)c(Cl)c2Cl,water,298,-6.875,mol/L
Clc1cccc(Cl)c1c2ccccc2,water,298,-4.966,mol/L
Clc1ccc(c(Cl)c1)c2ccccc2,water,298,-5.288,mol/L
Clc1cc(c2ccccc2)c(Cl)c(Cl)c1Cl,water,298,-7.319,mol/L
Clc1cc(Cl)c(c(Cl)c1)c2c(Cl)cc(Cl)cc2Cl,water,298,-8.947,mol/L
Clc1ccc(Cl)c(c1)c2ccccc2,water,298,-5.299,mol/L
Clc1ccc(cc1)c2ccccc2Cl,water,298,-5.28,mol/L
Clc1cc(Cl)c(cc1Cl)c2cc(Cl)c(Cl)cc2Cl,water,298,-8.58,mol/L
Clc1ccc(c(Cl)c1Cl)c2cc(Cl)c(Cl)cc2Cl,water,298,-8.381,mol/L
Clc1cc(Cl)c(c(Cl)c1)c2ccccc2,water,298,-6.009,mol/L
Clc1ccc(Cl)c(c1)c2cc(Cl)ccc2Cl,water,298,-7.281,mol/L
Clc1ccc(c(Cl)c1)c2cc(Cl)c(Cl)c(Cl)c2Cl,water,298,-8.52,mol/L
Brc1ccc(c(Br)c1Br)c2ccc(Br)c(Br)c2Br,water,298,-7.756,mol/L
Clc1ccc(Cl)c(c1)c2ccccc2Cl,water,298,-5.809,mol/L
Clc1ccc(c(Cl)c1)c2ccccc2Cl,water,298,-6.49,mol/L
Clc1ccc(Cl)c(c1)c2cc(Cl)c(Cl)cc2Cl,water,298,-7.326,mol/L
Clc1ccc(Cl)c(c1)c2c(Cl)ccc(Cl)c2Cl,water,298,-7.19,mol/L
Clc1ccc(c(Cl)c1)c2cc(Cl)c(Cl)cc2Cl,water,298,-7.95,mol/L
Clc1ccc(Cl)c(c1)c2ccc(Cl)c(Cl)c2Cl,water,298,-7.045,mol/L
Clc1ccc(cc1Cl)c2c(Cl)ccc(Cl)c2Cl,water,298,-7.65,mol/L
Clc1ccc(c(Cl)c1Cl)c2ccc(Cl)c(Cl)c2Cl,water,298,-9.013,mol/L
Clc1ccc(Cl)c(c1Cl)c2c(Cl)ccc(Cl)c2Cl,water,298,-7.903,mol/L
Clc1ccccc1c2c(Cl)cccc2Cl,water,298,-5.9,mol/L
Clc1ccc(cc1)c2c(Cl)cccc2Cl,water,298,-6.209,mol/L
Clc1cccc(c1)c2cc(Cl)ccc2Cl,water,298,-6.008,mol/L
Clc1ccc(cc1)c2cccc(Cl)c2Cl,water,298,-6.259,mol/L
Clc1ccc(cc1)c2ccc(Cl)c(Cl)c2,water,298,-6.554,mol/L
Clc1cccc(c1Cl)c2cccc(Cl)c2Cl,water,298,-7.272,mol/L
Clc1ccc(Cl)c(c1)c2cccc(Cl)c2Cl,water,298,-6.465,mol/L
Clc1ccc(c(Cl)c1)c2cc(Cl)ccc2Cl,water,298,-6.573,mol/L
Clc1cccc(c1Cl)c2cc(Cl)c(Cl)cc2Cl,water,298,-7.06,mol/L
Clc1ccc(c(Cl)c1Cl)c2ccccc2Cl,water,298,-6.83,mol/L
Clc1cccc(c1Cl)c2c(Cl)ccc(Cl)c2Cl,water,298,-6.78,mol/L
Clc1ccc(Cl)c(c1)c2cc(Cl)cc(Cl)c2Cl,water,298,-7.82,mol/L
Clc1cc(Cl)c(Cl)c(c1)c2c(Cl)ccc(Cl)c2Cl,water,298,-7.822,mol/L
Clc1cccc(c1Cl)c2cc(Cl)c(Cl)c(Cl)c2Cl,water,298,-8.421,mol/L
c1ccc2c(c1)cc3ccc4cccc5ccc2c3c45,water,298,-8.192,mol/L
c1ccc2c(c1)ccc3cc4c(ccc5ccccc45)cc23,water,298,-8.048,mol/L
Cc1ccc2cc3c(ccc4ccccc34)c5CCc1c25,water,298,-7.966,mol/L
c1ccc2cc3c(ccc4ccccc34)cc2c1,water,298,-7.385,mol/L
Cc1c2ccccc2c(C)c3c4ccccc4ccc13,water,298,-6.624,mol/L
c1ccc2c(c1)ccc3ccccc23,water,298,-5.19,mol/L
C1c2ccccc2c3ccccc13,water,298,-4.944,mol/L
c1ccc2cc3cc4ccccc4cc3cc2c1,water,298,-8.18,mol/L
c1ccc2cc3ccccc3cc2c1,water,298,-6.614,mol/L
c1cc2ccc3cccc4ccc(c1)c2c34,water,298,-6.176,mol/L
s1c2ccccc2c3ccccc13,water,298,-5.098,mol/L
c1cc2ccc3ccc4ccc5cccc6c(c1)c2c3c4c56,water,298,-9.026,mol/L
c1cc2cccc3c4cccc5cccc(c(c1)c23)c45,water,298,-8.8,mol/L
c1ccc2c(c1)c3cccc4cccc2c34,water,298,-5.891,mol/L
c1cc2cccc3C=Cc(c1)c23,water,298,-3.976,mol/L
c1ccc2cc3c4ccccc4c5ccccc5c3cc2c1,water,298,-8.24,mol/L
c1ccc2c(c1)c3ccccc3c4ccccc24,water,298,-6.745,mol/L
c1ccc2c(c1)ccc3c4ccccc4ccc23,water,298,-8.057,mol/L
c1ccc2c(c1)ccc3cc4ccc5ccccc5c4cc23,water,298,-8.432,mol/L
c1cnc2c(c1)ccc3ncccc23,water,298,-2.681,mol/L
C1c2ccccc2c3cc4ccccc4cc13,water,298,-8.034,mol/L
c1ccc2nc3ccccc3cc2c1,water,298,-3.669,mol/L
Nc1cccc2nc3ccccc3cc12,water,298,-4.224,mol/L
[O-][N+](=O)c1c2ccccc2cc3ccccc13,water,298,-6.292,mol/L
[O-][N+](=O)c1ccc2c(Cc3ccccc23)c1,water,298,-5.99,mol/L
Cc1ccc2cc3ccccc3cc2c1,water,298,-6.956,mol/L
Nc1ccc2cc3ccccc3cc2c1,water,298,-5.172,mol/L
Cc1c2ccccc2cc3ccccc13,water,298,-5.867,mol/L
Cc1c2ccccc2c(C)c3ccccc13,water,298,-6.566,mol/L
Cc1cccc2c1ccc3ccccc23,water,298,-5.854,mol/L
Cc1cccc2c1Cc3ccccc23,water,298,-5.218,mol/L
Cc1ccc2c(ccc3ccccc23)c1,water,298,-5.837,mol/L
Nc1cc2c3ccccc3ccc2c4ccccc14,water,298,-6.196,mol/L
CCc1ccc2cc3ccccc3cc2c1,water,298,-6.886,mol/L
c1ccccc1,water,298,-1.64,mol/L
Cc1c(C)c(C)c(C)c(C)c1C,water,298,-5.839,mol/L
Cc1ccccc1C,water,298,-2.776,mol/L
Cc1cc(C)c(C)cc1C,water,298,-4.586,mol/L
CC(C)c1ccccc1,water,298,-3.292,mol/L
CC(=C)c1ccccc1,water,298,-3.008,mol/L
CC(C)c1ccc(C)cc1,water,298,-3.759,mol/L
CCc1ccccc1,water,298,-2.798,mol/L
C=Cc1ccccc1,water,298,-2.526,mol/L
C(c1ccccc1)c2ccccc2,water,298,-4.077,mol/L
C(Cc1ccccc1)c2ccccc2,water,298,-4.627,mol/L
c1ccc(cc1)\C=C\c2ccccc2,water,298,-5.793,mol/L
CCCc1ccccc1,water,298,-3.362,mol/L
CCCCc1ccccc1,water,298,-4.056,mol/L
CCc1ccc(CC)cc1,water,298,-3.733,mol/L
Cc1ccc(C)cc1,water,298,-2.816,mol/L
Cc1cccc(C)c1,water,298,-2.819,mol/L
Cc1cc(C)cc(C)c1,water,298,-3.397,mol/L
Cc1ccccc1,water,298,-2.243,mol/L
CCc1ccccc1CC,water,298,-3.276,mol/L
CCC(C)c1ccccc1,water,298,-3.882,mol/L
CCc1cccc(CC)c1,water,298,-3.748,mol/L
Cc1cccc(C)c1C,water,298,-3.204,mol/L
C#Cc1ccccc1,water,298,-2.35,mol/L
CCCCCc1ccccc1,water,298,-4.643,mol/L
CC(C)Cc1ccccc1,water,298,-4.123,mol/L
CCc1ccccc1C,water,298,-3.207,mol/L
Cc1ccc(cc1)c2ccc(C)cc2,water,298,-6.018,mol/L
CCc1ccc(C)cc1,water,298,-3.103,mol/L
Cc1cc(C)c(C)c(C)c1C,water,298,-3.981,mol/L
CCCCCCc1ccccc1,water,298,-5.255,mol/L
[O-][N+](=O)c1c(Cl)c(Cl)c(Cl)c(Cl)c1Cl,water,298,-5.817,mol/L
COc1c(Cl)cc(Cl)cc1Cl,water,298,-4.325,mol/L
Clc1cccc(Cl)c1Cl,water,298,-4.003,mol/L
[O-][N+](=O)c1ccccc1Cl,water,298,-2.896,mol/L
[O-][N+](=O)c1cc(Cl)ccc1Cl,water,298,-4.137,mol/L
[O-][N+](=O)c1cc(Cl)c(Cl)cc1Cl,water,298,-3.887,mol/L
Cc1ccccc1Cl,water,298,-2.53,mol/L
Clc1ccccc1Cl,water,298,-2.974,mol/L
Clc1cc(Cl)c(Cl)cc1Cl,water,298,-5.56,mol/L
[O-][N+](=O)c1ccc(Cl)c(Cl)c1,water,298,-3.201,mol/L
[O-][N+](=O)c1ccc(Cl)cc1,water,298,-2.845,mol/L
Brc1ccc(Br)cc1,water,298,-4.072,mol/L
Cc1ccc(Br)cc1,water,298,-3.192,mol/L
Clc1ccc(Br)cc1,water,298,-3.63,mol/L
Cc1ccc(Cl)cc1,water,298,-3.077,mol/L
Clc1ccc(Cl)cc1,water,298,-3.257,mol/L
Brc1cccc(Br)c1,water,298,-3.543,mol/L
Clc1cccc(Br)c1,water,298,-3.21,mol/L
Clc1cc(Cl)cc(Cl)c1,water,298,-4.48,mol/L
Brc1ccccc1,water,298,-2.547,mol/L
Clc1ccccc1,water,298,-2.354,mol/L
[O-][N+](=O)c1c(Cl)c(Cl)cc(Cl)c1Cl,water,298,-5.096,mol/L
Clc1c(Cl)c(Cl)c(Cl)c(Cl)c1Cl,water,298,-7.662,mol/L
Clc1ccc(Cl)c(Cl)c1,water,298,-3.569,mol/L
[O-][N+](=O)c1cccc(Cl)c1,water,298,-2.761,mol/L
Fc1ccc(CCl)cc1,water,298,-2.544,mol/L
Fc1cccc(F)c1,water,298,-2.0,mol/L
Fc1ccccc1,water,298,-1.795,mol/L
Fc1ccc(F)cc1,water,298,-1.971,mol/L
Clc1cccc(Cl)c1,water,298,-3.07,mol/L
Ic1ccccc1,water,298,-2.778,mol/L
Clc1cc(Cl)c(Cl)c(Cl)c1Cl,water,298,-5.479,mol/L
Fc1cccc(Cl)c1,water,298,-2.346,mol/L
Brc1cc(Br)cc(Br)c1,water,298,-5.6,mol/L
Clc1ccc(Cl)c(Cl)c1Cl,water,298,-4.562,mol/L
Clc1cc(Cl)c(Cl)c(Cl)c1,water,298,-4.627,mol/L
Brc1cc(Br)c(Br)cc1Br,water,298,-6.993,mol/L
[O-][N+](=O)c1cc(Cl)c(Cl)c(Cl)c1Cl,water,298,-4.553,mol/L
Fc1cccc(Br)c1,water,298,-2.666,mol/L
[O-][N+](=O)c1c(Cl)cc(Cl)cc1Cl,water,298,-4.559,mol/L
CC1=CC(=O)c2ccccc2C1=O,water,298,-3.032,mol/L
CCCCNC(=O)N[S](=O)(=O)c1ccc(C)cc1,water,298,-3.394,mol/L
NC(=O)c1ccccc1O,water,298,-1.823,mol/L
O=C1OC(=O)c2ccccc12,water,298,-1.378,mol/L
Oc1ccccc1C(=O)Nc2ccccc2,water,298,-3.589,mol/L
O=C(OOC(=O)c1ccccc1)c2ccccc2,water,298,-4.425,mol/L
FC(F)(F)c1ccccc1,water,298,-2.511,mol/L
ClCc1ccccc1,water,298,-2.382,mol/L
ONc1ccccc1,water,298,-0.737,mol/L
O(c1ccccc1)c2ccccc2,water,298,-3.976,mol/L
O=CNc1ccccc1,water,298,-0.678,mol/L
S=C=Nc1ccccc1,water,298,-3.177,mol/L
CCOc1ccccc1,water,298,-2.332,mol/L
CC(=O)Nc1ccccc1,water,298,-1.29,mol/L
CC(=O)Nc1ccc(cc1)[S](N)(=O)=O,water,298,-1.607,mol/L
CC(=O)Nc1ccccc1Cl,water,298,-1.4,mol/L
CC(=O)Nc1ccccc1[N+]([O-])=O,water,298,-1.909,mol/L
S=C=NCc1ccccc1,water,298,-3.136,mol/L
Oc1ccc2CCCCc2c1,water,298,-1.995,mol/L
NC(=O)c1c(Cl)cccc1Cl,water,298,-1.843,mol/L
Cc1cccc(Oc2ccc(cc2)[N+]([O-])=O)c1,water,298,-4.661,mol/L
ClC(Cl)(Cl)CC(=C)c1ccccc1,water,298,-4.282,mol/L
CCNCNC(=O)c1ccccc1,water,298,-0.075,mol/L
CN,water,298,1.541,mol/L
CC(C)N,water,298,1.228,mol/L
CN(C)C,water,298,1.178,mol/L
CC(C)(C)N,water,298,1.136,mol/L
CC(C)CN,water,298,1.136,mol/L
CCCN(CCC)CCC,water,298,-2.282,mol/L
CCCCC(CC)CN,water,298,-1.713,mol/L
CCCN,water,298,1.228,mol/L
NCC=C,water,298,1.243,mol/L
NC1CCCCC1,water,298,1.004,mol/L
CCCCN,water,298,1.136,mol/L
CCNCC,water,298,1.136,mol/L
CCCCCN,water,298,1.06,mol/L
CCCCNCCCC,water,298,-1.439,mol/L
CCN(CC)CC,water,298,-0.138,mol/L
CNC,water,298,1.558,mol/L
NCCO,water,298,1.214,mol/L
CCCNCCC,water,298,-0.237,mol/L
Nc1ccccc1,water,298,-0.413,mol/L
CCN(CC)c1ccccc1,water,298,-3.028,mol/L
Nc1ccc(cc1)c2ccc(N)cc2,water,298,-2.758,mol/L
Nc1ccccc1Cl,water,298,-1.194,mol/L
Cc1ccccc1N,water,298,-0.81,mol/L
Nc1ccccc1N,water,298,-0.428,mol/L
Nc1ccccc1O,water,298,-0.737,mol/L
Nc1ccc(Cl)c(Cl)c1,water,298,-3.246,mol/L
Nc1cc(cc(c1O)[N+]([O-])=O)[N+]([O-])=O,water,298,-2.153,mol/L
Nc1cccc(c1)[N+]([O-])=O,water,298,-2.061,mol/L
Nc1ccc(cc1)[N+]([O-])=O,water,298,-2.278,mol/L
CNc1ccccc1,water,298,-1.28,mol/L
Nc1ccc(Cc2ccc(N)cc2)cc1,water,298,-2.297,mol/L
Nc1ccc(Cl)cc1,water,298,-1.515,mol/L
Cc1ccc(N)cc1,water,298,-1.217,mol/L
Nc1ccc(N)cc1,water,298,-0.466,mol/L
Nc1cccc(Cl)c1,water,298,-1.373,mol/L
Cc1cccc(N)c1,water,298,-0.854,mol/L
Nc1cccc(N)c1,water,298,0.343,mol/L
COc1cc(ccc1N)c2ccc(N)c(OC)c2,water,298,-3.61,mol/L
CN(C)c1ccccc1,water,298,-1.922,mol/L
N(c1ccccc1)c2ccccc2,water,298,-3.504,mol/L
COc1ccc(C=O)cc1,water,298,-1.502,mol/L
Nc1ccc(O)cc1,water,298,-0.834,mol/L
Nc1ccc(Cl)cc1Cl,water,298,-2.417,mol/L
Nc1cccc(O)c1,water,298,-0.607,mol/L
Nc1cc(Cl)cc(Cl)c1,water,298,-2.315,mol/L
Nc1c(Cl)cc(Cl)cc1Cl,water,298,-3.691,mol/L
Oc1ccc(cc1[N+]([O-])=O)[N+]([O-])=O,water,298,-1.819,mol/L
Oc1c(Cl)cc(Cl)c(Cl)c1Cl,water,298,-4.004,mol/L
CC(C)(c1ccc(O)cc1)c2ccc(O)cc2,water,298,-3.279,mol/L
Oc1c(Cl)cccc1Cl,water,298,-1.933,mol/L
Oc1c(Cl)c(Cl)c(Cl)c(Cl)c1Cl,water,298,-4.279,mol/L
Oc1c(Cl)cc(Cl)cc1Cl,water,298,-2.392,mol/L
Oc1ccccc1[N+]([O-])=O,water,298,-1.745,mol/L
Oc1c(cc(cc1[N+]([O-])=O)[N+]([O-])=O)[N+]([O-])=O,water,298,-1.256,mol/L
CC(C)c1ccc(C)cc1O,water,298,-2.222,mol/L
CCc1ccccc1O,water,298,-1.359,mol/L
COc1ccccc1O,water,298,-0.822,mol/L
Oc1ccccc1c2ccccc2,water,298,-2.386,mol/L
COc1cccc(OC)c1O,water,298,-0.952,mol/L
Oc1ccc(cc1)c2ccccc2,water,298,-3.481,mol/L
Cc1ccccc1O,water,298,-0.621,mol/L
Cc1ccc(O)cc1C,water,298,-1.409,mol/L
Oc1cc(Cl)c(Cl)cc1Cl,water,298,-2.216,mol/L
Oc1ccc(Cl)cc1Cc2cc(Cl)ccc2O,water,298,-3.953,mol/L
CC(C)(C)c1ccc(O)cc1,water,298,-2.413,mol/L
Oc1ccc(cc1)[N+]([O-])=O,water,298,-1.079,mol/L
Cc1ccc(O)cc1,water,298,-0.702,mol/L
Oc1ccc(Cl)cc1,water,298,-0.729,mol/L
Oc1cccc(Cl)c1,water,298,-0.694,mol/L
Oc1cccc(O)c1,water,298,0.814,mol/L
Cc1cc(C)cc(O)c1,water,298,-1.399,mol/L
Oc1cc(O)cc(O)c1,water,298,-1.075,mol/L
Oc1ccccc1,water,298,-0.056,mol/L
Oc1c(Br)cc(Br)cc1Br,water,298,-3.674,mol/L
Cc1ccc(O)c(c1)[N+]([O-])=O,water,298,-2.384,mol/L
Oc1ccccc1O,water,298,0.622,mol/L
COc1cc(C=O)ccc1O,water,298,-1.141,mol/L
CCc1ccc(O)cc1,water,298,-1.475,mol/L
Oc1ccc(C=O)cc1,water,298,-0.976,mol/L
CCCCCCc1ccc(O)cc1O,water,298,-2.589,mol/L
COc1ccc(O)cc1,water,298,-0.492,mol/L
Oc1cc(ccc1[N+]([O-])=O)[N+]([O-])=O,water,298,-2.68,mol/L
Oc1ccc(cc1[N+]([O-])=O)C(F)(F)F,water,298,-2.503,mol/L
Cc1cc(cc(c1O)[N+]([O-])=O)[N+]([O-])=O,water,298,-3.0,mol/L
Oc1c(cccc1[N+]([O-])=O)[N+]([O-])=O,water,298,-1.55,mol/L
Oc1cccc(Cl)c1Cl,water,298,-1.656,mol/L
Cc1cccc(C)c1O,water,298,-1.305,mol/L
Oc1cc(Cl)ccc1Cl,water,298,-1.911,mol/L
Oc1cccc(Br)c1,water,298,-0.876,mol/L
Oc1cccc(O)c1[N+]([O-])=O,water,298,-2.073,mol/L
Oc1ccc(Br)cc1Br,water,298,-2.123,mol/L
Oc1ccc(cc1[N+]([O-])=O)c2ccccc2,water,298,-4.41,mol/L
Oc1c(Cl)ccc(Cl)c1Cl,water,298,-2.642,mol/L
COc1ccc(O)c(c1)[N+]([O-])=O,water,298,-2.839,mol/L
Cc1ccc(C)c(O)c1C,water,298,-1.936,mol/L
Cc1cc(O)ccc1[N+]([O-])=O,water,298,-2.11,mol/L
Oc1ccc(C=O)cc1[N+]([O-])=O,water,298,-2.949,mol/L
CCC(C)c1ccc(O)c(c1)[N+]([O-])=O,water,298,-3.84,mol/L
Cc1cccc(O)c1[N+]([O-])=O,water,298,-1.641,mol/L
Cc1cc(O)c(cc1Cl)[N+]([O-])=O,water,298,-4.39,mol/L
CC(O)C(O)=O,water,298,1.045,mol/L
CCCCCCCCCCCCCCCC(O)=O,water,298,-6.807,mol/L
CC(O)=O,water,298,1.221,mol/L
OC(=O)C(Cl)(Cl)Cl,water,298,0.519,mol/L
OC(=O)C(O)(c1ccccc1)c2ccccc2,water,298,-2.209,mol/L
CC12[C@@H](O)C=C[C@@]3(OC1=O)[C@@H]4CC[C@]5(O)C[C@]4(CC5=C)[C@H]([C@H]23)C(O)=O,water,298,-1.841,mol/L
OC(=O)CC(O)(CC(O)=O)C(O)=O,water,298,0.489,mol/L
CCC(O)=O,water,298,1.13,mol/L
OC(=O)CCl,water,298,0.928,mol/L
CC(C)C(O)=O,water,298,0.278,mol/L
CC(=C)C(O)=O,water,298,0.014,mol/L
OC(=O)C(Cl)Cl,water,298,0.89,mol/L
CCC(Br)C(O)=O,water,298,-0.378,mol/L
OC(=O)Cc1cccc2ccccc12,water,298,-2.647,mol/L
OC(=O)Cc1c[nH]c2ccccc12,water,298,-2.067,mol/L
CCC(CC)C(O)=O,water,298,-0.81,mol/L
OC(C(O)=O)c1ccccc1,water,298,0.075,mol/L
OC(=O)Cc1ccccc1,water,298,-0.914,mol/L
CCCC(O)=O,water,298,1.055,mol/L
CCCCC(O)=O,water,298,-0.416,mol/L
OC(=O)CCC(O)=O,water,298,-0.152,mol/L
OC(=O)\C=C\C(O)=O,water,298,-1.22,mol/L
C/C=C/C=C/C(O)=O,water,298,-1.652,mol/L
OC(=O)CCCC(O)=O,water,298,1.083,mol/L
OC(=O)CCCCCC(O)=O,water,298,-0.506,mol/L
CCCCCCCCCCC(O)=O,water,298,-3.553,mol/L
OC(=O)COc1ccccc1,water,298,-1.103,mol/L
OC(=O)CCCCCCCC(O)=O,water,298,-1.894,mol/L
OC(=O)CCCCC(O)=O,water,298,-0.676,mol/L
CCCCCCCC(O)=O,water,298,-2.262,mol/L
OC(=O)\C=C\c1ccccc1,water,298,-2.434,mol/L
CCCCCC(O)=O,water,298,-1.052,mol/L
CCCCCCCCCCCC(O)=O,water,298,-3.561,mol/L
CCCCCCCCCC(O)=O,water,298,-3.445,mol/L
OC(=O)CNC(=O)c1ccccc1,water,298,-1.679,mol/L
OC(=O)CCc1ccccc1,water,298,-1.406,mol/L
OCC(C(O)=O)c1ccccc1,water,298,-0.931,mol/L
CCCCCCCCCCCCCC(O)=O,water,298,-5.329,mol/L
OC(=O)COc1ccc(Cl)c(Cl)c1,water,298,-2.685,mol/L
OC(=O)COc1ccccc1Cl,water,298,-2.164,mol/L
OC(=O)\C=C\c1ccccc1,water,298,-2.415,mol/L
COc1ccc(\C=C\C(O)=O)cc1,water,298,-2.398,mol/L
C/C=C/C(O)=O,water,298,0.0,mol/L
OC(CC(O)=O)C(O)=O,water,298,0.873,mol/L
CC(=O)Oc1ccccc1C(O)=O,water,298,-1.593,mol/L
OC(=O)c1cc(Cl)cc(Cl)c1,water,298,-3.114,mol/L
OC(=O)c1ccncc1,water,298,-1.374,mol/L
Nc1ccc(C(O)=O)c(O)c1,water,298,-1.957,mol/L
OC(=O)c1ccccc1,water,298,-1.655,mol/L
OC(=O)c1ccc(Cl)cc1,water,298,-3.337,mol/L
OC(=O)c1cccc2ccccc12,water,298,-3.302,mol/L
OC(=O)c1cscc1,water,298,-1.474,mol/L
OC(=O)c1occc1,water,298,-0.48,mol/L
OC(=O)c1ccccc1I,water,298,-2.731,mol/L
OC(=O)c1ccccc1C(O)=O,water,298,-1.375,mol/L
OC(=O)c1ccc2ccccc2c1,water,298,-3.564,mol/L
CC(C)(C)c1ccc(cc1)C(O)=O,water,298,-3.804,mol/L
Cc1cccc(c1)C(O)=O,water,298,-2.143,mol/L
Nc1cccc(c1)C(O)=O,water,298,-1.366,mol/L
OC(=O)c1cccc(O)c1,water,298,-1.28,mol/L
OC(=O)c1cc(cc(c1)[N+]([O-])=O)[N+]([O-])=O,water,298,-2.196,mol/L
OC(=O)c1ccc(O)c(O)c1,water,298,-0.928,mol/L
Cc1ccc(cc1)C(O)=O,water,298,-2.603,mol/L
OC(=O)c1ccc(O)cc1,water,298,-1.441,mol/L
Cc1ccccc1C(O)=O,water,298,-2.062,mol/L
OC(=O)c1ccccc1Cl,water,298,-1.875,mol/L
Nc1ccccc1C(O)=O,water,298,-1.593,mol/L
COc1cc(ccc1O)C(O)=O,water,298,-2.05,mol/L
OC(=O)c1cccc(c1)C(O)=O,water,298,-3.22,mol/L
OC(=O)c1cccc(c1)[N+]([O-])=O,water,298,-1.669,mol/L
Nc1cc(Cl)cc(C(O)=O)c1Cl,water,298,-2.469,mol/L
OC(=O)c1cc(O)c(O)c(O)c1,water,298,-1.155,mol/L
Nc1ccc(cc1)C(O)=O,water,298,-1.351,mol/L
OC(=O)c1c(O)cccc1O,water,298,-1.207,mol/L
OC(=O)c1ccccc1F,water,298,-1.289,mol/L
OC(=O)c1cccc(F)c1,water,298,-1.97,mol/L
OC(=O)c1ccc(F)cc1,water,298,-2.067,mol/L
OC(=O)c1ccccc1c2ccccc2C(O)=O,water,298,-2.284,mol/L
OC(=O)c1cc(O)ccc1O,water,298,-1.489,mol/L
OC(=O)c1cccc(Cl)c1,water,298,-2.541,mol/L
CC(C)c1ccc(cc1)C(O)=O,water,298,-3.036,mol/L
OC(=O)c1ccccc1[N+]([O-])=O,water,298,-1.328,mol/L
COc1ccccc1C(O)=O,water,298,-1.483,mol/L
OC(=O)c1ccc(Br)cc1,water,298,-3.525,mol/L
OC(=O)c1cccc(c1C(O)=O)[N+]([O-])=O,water,298,-1.021,mol/L
OC(=O)c1cccc(I)c1,water,298,-3.271,mol/L
OC(=O)c1ccc(I)cc1,water,298,-3.963,mol/L
CN(C)c1ccc(cc1)C(O)=O,water,298,-3.398,mol/L
OC(=O)c1c2ccccc2cc3ccccc13,water,298,-3.417,mol/L
OCCc1ccccc1,water,298,-0.741,mol/L
CCO,water,298,1.337,mol/L
CO,water,298,1.494,mol/L
CC(C)O,water,298,1.221,mol/L
CCCO,water,298,1.221,mol/L
CCCCO,water,298,-0.069,mol/L
CCCCCO,water,298,-0.603,mol/L
CC(C)(C)CO,water,298,-0.401,mol/L
CCC(C)(C)O,water,298,0.096,mol/L
CC(C)CO,water,298,0.059,mol/L
CCC(C)O,water,298,0.388,mol/L
OCc1ccccc1O,water,298,-0.295,mol/L
OC(c1ccccc1)c2ccccc2,water,298,-2.549,mol/L
OCc1ccccc1,water,298,-0.432,mol/L
OCC#C,water,298,1.251,mol/L
OC1CCCCC1,water,298,-0.377,mol/L
CCCCCCO,water,298,-1.239,mol/L
CCCCCCCO,water,298,-1.842,mol/L
CCCCCCCCO,water,298,-2.382,mol/L
CCCCCCCCCCO,water,298,-3.631,mol/L