Solute,Solvent,Temperature_K,Solubility,Units
NNc1cccc(c1)[S](O)(=O)=O,water,298,-0.8275,mol/L
NCc1ccc(cc1)[S](N)(=O)=O,water,298,0.321,mol/L
OC[C@H]1O[C@@H](Oc2ccccc2CO)[C@H](O)[C@@H](O)[C@@H]1O,water,298,-0.8547,mol/L
OC1CC(=CC(O)C1O)C(O)=O,water,298,-0.0648,mol/L
CC(=C)C1CCC(=CC1)C,water,298,-4.2552,mol/L
OC(=O)CN(CC(O)=O)CC(O)=O,water,298,-0.5101,mol/L
Oc1ccc(C=O)cc1O,water,298,-1.3402,mol/L
NC(Cc1sccc1)C(O)=O,water,298,-0.8356,mol/L
CC[NH+](CCO)CCO,water,298,0.8755,mol/L
[O-][N+](=O)c1oc(cc1)/C=N/N2CC(CN3CCOCC3)OC2=O,water,298,-2.6359,mol/L
CCNC(=O)Nc1sc(cn1)[N+]([O-])=O,water,298,-2.8578,mol/L
C(CNCc1ccccc1)NCc2ccccc2,water,298,-1.7865,mol/L
N#CCc1ccccc1,water,298,-3.0687,mol/L
[Na+].CN(C)c1ccc(cc1)N=N[S]([O-])(=O)=O,water,298,-1.0991,mol/L
COc1ccc(CC=C)cc1,water,298,-2.9209,mol/L
OC(=O)CCC1CCCC1,water,298,-1.7691,mol/L
CCCCC(CC)COC(=O)\C=C\C(=O)OCC(CC)CCCC,water,298,-3.5321,mol/L
CCCCOC(=O)CCC(=O)OCCCC,water,298,-3.0006,mol/L
CCOC(=O)\C=C/C(=O)OCC,water,298,-1.0899,mol/L
CCOC(=O)CCCCC(=O)OCC,water,298,-1.6795,mol/L
NCCO,water,298,1.2141,mol/L
[Na+].[O-]C=O,water,298,0.8049,mol/L
C[Si](C)(C)O[Si](C)(C)O[Si](C)(C)O[Si](C)(C)C,water,298,-7.6637,mol/L
CO[P](=O)(OC)OC(/C)=C/C(=O)N(C)C,water,298,0.6249,mol/L
OC(=O)CCI,water,298,-0.43,mol/L
CC(C)=CC(C)=O,water,298,-0.531,mol/L
OC(=O)CC(O)=O,water,298,0.8652,mol/L
O=C1CSC(=S)N1,water,298,-1.7723,mol/L
O=C1NC(=S)NC=C1,water,298,-2.2573,mol/L
O=C1NC=CC=C1,water,298,1.0218,mol/L
CC(=O)NCCO,water,298,0.9867,mol/L
C1CC=CC1,water,298,-2.1049,mol/L
NC(=S)NNC(N)=S,water,298,-1.7965,mol/L
[Na+].NC(CCC(O)=O)C([O-])=O,water,298,0.3573,mol/L
[Na+].[Na+].[S-]C(=S)NCCNC([S-])=S,water,298,-0.1078,mol/L
[H+].[H+].[Cl-].[Cl-].C1CNCCN1,water,298,0.4112,mol/L
CCCCCCOC(C)=O,water,298,-2.451,mol/L
CCCCCCCCCCCC(O)=O,water,298,-4.6196,mol/L
CCCCCCNCCCCCC,water,298,-3.1574,mol/L
CCCCOCCOCCOCCO,water,298,0.6855,mol/L
ClC1(Cl)C2(Cl)C3(Cl)C4(Cl)C(=O)C5(Cl)C3(Cl)C1(Cl)C5(Cl)C24Cl,water,298,-5.2594,mol/L
[Na+].CCC(C)C1(CC)C(=O)NC(=O)[N-]C1=O,water,298,0.1528,mol/L
OC(=O)CC1(CC(O)=O)OCOC1=O,water,298,-0.611,mol/L
CC(C)C(O)C(C)(C)CO,water,298,-0.8863,mol/L
[Na+].[Na+].C[As]([O-])([O-])=O,water,298,0.3711,mol/L
OC(=O)CF,water,298,1.1077,mol/L
OC(=O)C(O)=O,water,298,0.388,mol/L
Nc1ccc(cc1)[S](=O)(=O)Nc2ccccn2,water,298,-2.9686,mol/L
CC(O)C(N)C(O)=O,water,298,0.067,mol/L
O[C@@H]([C@H](O)C(O)=O)C(O)=O,water,298,0.8236,mol/L
OC(C(O)C(O)=O)C(O)=O,water,298,0.5718,mol/L
OC1COC(O)C(O)C1O,water,298,0.5225,mol/L
Cc1c(cc(cc1[N+]([O-])=O)[N+]([O-])=O)C(N)=O,water,298,-2.3525,mol/L
N[S](=O)(=O)c1cc2c(NC=N[S]2(=O)=O)cc1C(F)(F)F,water,298,-0.8186,mol/L
[nH]1c2ccccc2nc1c3cscn3,water,298,-3.6048,mol/L
O[S](=O)(=O)OCCOc1ccc(Cl)cc1Cl,water,298,-0.0601,mol/L
OC(=O)c1cc(O)c(O)c(O)c1,water,298,-1.1552,mol/L
CCOc1ccc(NC(N)=O)cc1,water,298,-2.173,mol/L
[Na+].[Na+].[O-]C(=O)CCC([O-])=O,water,298,0.0914,mol/L
[K+].[C-]#N,water,298,1.0436,mol/L
C1CN1,water,298,1.3658,mol/L
CN(C)[P](=O)(O[P](=O)(N(C)C)N(C)C)N(C)C,water,298,0.5433,mol/L
NC1=NC(=O)C(=C(N)N1)O[C@@H]2O[C@H](CO)[C@@H](O)[C@H](O)[C@H]2O,water,298,-1.4832,mol/L
ClCCNC(=O)N(CCCl)N=O,water,298,-1.7285,mol/L
OC(=O)Cc1ccc(O)cc1,water,298,-0.3991,mol/L
C1COC2(C1)CCCO2,water,298,-0.1078,mol/L
c1cc2ccc3ccc4ccc5ccc6ccc1c7c2c3c4c5c67,water,298,-9.3315,mol/L
c1ccc2c(c1)c3cccc4ccc5cccc2c5c34,water,298,-7.6026,mol/L
c1ccc2c(c1)c3ccc4ccc5cccc6cc2c3c4c56,water,298,-9.1627,mol/L
[nH]1c2ccc3ccccc3c2c4c1ccc5ccccc45,water,298,-6.6277,mol/L
c1ccc2c(c1)ccc3ccc4ccccc4c23,water,298,-7.8207,mol/L
c1ccc2c(c1)ccc3c2cc4cccc5c6ccccc6c3c45,water,298,-8.4806,mol/L
C1c2cccc3ccc4cccc1c4c23,water,298,-5.2379,mol/L
c1ccc2c(c1)ccc3c4cccc5cccc(c45)c23,water,298,-8.004,mol/L
c1ccc2c(c1)cc3c4ccccc4c5cccc2c35,water,298,-8.2259,mol/L
c1ccc2cc3c4cccc5cccc(c3cc2c1)c45,water,298,-8.4989,mol/L
c1ccc2c(c1)ccc3c2ccc4c5ccccc5ccc34,water,298,-7.8097,mol/L
N1c2c(Sc3ccc4ccccc4c13)ccc5ccccc25,water,298,-7.9081,mol/L
N1c2ccc3ccccc3c2Sc4c1ccc5ccccc45,water,298,-6.8786,mol/L
N1c2ccccc2Sc3ccc4ccccc4c13,water,298,-5.8957,mol/L
N1c2ccccc2Sc3c1ccc4ccccc34,water,298,-6.5727,mol/L
c1ccc2c(c1)ccc3nc4c(ccc5ccccc45)cc23,water,298,-6.2447,mol/L
c1ccc2c(c1)cnc3ccccc23,water,298,-2.7763,mol/L
[nH]1nc2cncnc2n1,water,298,-0.2319,mol/L
C1CN2CCN1CC2,water,298,0.6033,mol/L
[nH]1cccn1,water,298,-0.5452,mol/L
o1cccn1,water,298,0.3827,mol/L
c1ccnnc1,water,298,1.0964,mol/L
c1cncnc1,water,298,1.0964,mol/L
C1CCCCCC1,water,298,-3.5149,mol/L
CCO[P](=S)(OCC)Oc1cnccn1,water,298,-2.338,mol/L
CCN(CC)C(=O)/C(Cl)=C(/C)O[P](=O)(OC)OC,water,298,0.5233,mol/L
COC(=O)\C=C(/C)O[P](=O)(OC)OC,water,298,0.6495,mol/L
CCO[P](=S)(OCC)OCCSCC,water,298,-3.634,mol/L
C1OC1C2CO2,water,298,1.065,mol/L
NC(=O)N1c2ccccc2C=Cc3ccccc13,water,298,-3.3242,mol/L
C1CN(CCN1C\C=C\c2ccccc2)C(c3ccccc3)c4ccccc4,water,298,-2.6914,mol/L
COc1c2occc2cc3C=CC(=O)Oc13,water,298,-3.6576,mol/L
N[C@@H](Cc1cc(Br)c(O)c(Br)c1)C(O)=O,water,298,-1.9281,mol/L
N[C@@H](Cc1cc(I)c(O)c(I)c1)C(O)=O,water,298,-2.8441,mol/L
CC[S](=O)CCS[P](=O)(OC)OC,water,298,0.6086,mol/L
NN,water,298,1.4942,mol/L
OC(O)C(Cl)(Cl)Cl,water,298,0.6807,mol/L
CCN1C[C@]2(COC)[C@H](O)C[C@H](OC)[C@@]34[C@@H]5C[C@]6(O)[C@@H](OC)[C@H](O)[C@](OC(C)=O)([C@@H]([C@H](OC)[C@H]23)C14)[C@H]5[C@H]6OC(=O)c7ccccc7,water,298,-3.3187,mol/L
CCC(C)(OC(N)=O)C#C,water,298,-0.9456,mol/L
CC(N)C(O)=O,water,298,0.2703,mol/L
NC(CO)C(O)=O,water,298,-0.4217,mol/L
[Na+].[K+].O[C@H]([C@@H](O)C([O-])=O)C([O-])=O,water,298,0.3984,mol/L
FC(F)(F)C(Cl)Cl,water,298,-1.8623,mol/L
ClC1=C(Cl)C2(Cl)C3C4CC(C=C4)C3C1(Cl)C2(Cl)Cl,water,298,-7.3317,mol/L
CCO[P](=O)(OCC)O\C=C\Cl,water,298,-1.3316,mol/L
NC(CO)C(O)=O,water,298,0.5395,mol/L
CCC(C)N1C(=O)NC(=C(Br)C1=O)C,water,298,-2.5057,mol/L
CC(C)N1C(=O)NC(=C(Br)C1=O)C,water,298,-2.0604,mol/L
CNC(=O)Oc1cc(C)c(N(C)C)c(C)c1,water,298,-3.3469,mol/L
CCC(C)C(N)C(O)=O,water,298,-0.5033,mol/L
OC(=O)c1cc(Cl)ccc1O,water,298,-1.237,mol/L
Fc1cccc2ccccc12,water,298,-3.4527,mol/L
CC(=O)Nc1ccc(F)cc1C,water,298,-1.3593,mol/L
CC(=O)Nc1ccc(C)cc1F,water,298,-1.7403,mol/L
Fc1cc(F)c(F)cc1F,water,298,-2.3757,mol/L
CCCC[C@H](N)C(O)=O,water,298,-1.0387,mol/L
O[C@@H]1C[C@](O)(C[C@@H](OC(=O)\C=C\c2ccc(O)c(O)c2)[C@@H]1O)C(O)=O,water,298,-0.9473,mol/L
CC(C)CC(N)C(O)=O,water,298,-1.0456,mol/L
C[P](F)(=O)OC1CCCCC1,water,298,-1.6875,mol/L
CC(N)C(O)=O,water,298,0.2674,mol/L
Fc1ccccc1CCl,water,298,-2.541,mol/L
Fc1ccccc1Cl,water,298,-2.4157,mol/L
Fc1ccc(I)cc1,water,298,-3.1257,mol/L
CCSCC,water,298,-1.4596,mol/L
CCF,water,298,-1.3477,mol/L
Fc1ccccc1F,water,298,-1.0004,mol/L
Cn1cncc1C[C@H](N)C(O)=O,water,298,0.0727,mol/L
F[P-](F)(F)(F)(F)F.N#[N+]c1ccccc1,water,298,-1.4438,mol/L
OCCF,water,298,1.1934,mol/L
CC(C)N[P](F)(=O)NC(C)C,water,298,-0.3574,mol/L
CCOC(=O)CC(=O)C(F)(F)F,water,298,-1.362,mol/L
CC(O)C(F)(F)F,water,298,0.3094,mol/L
FC(F)(F)C(F)(Cl)Cl,water,298,-3.0961,mol/L
OC(=O)C(F)F,water,298,1.0176,mol/L
C[C@]12CC(=O)[C@H]3[C@@H](CCC4=CC(=O)CC[C@]34C)[C@@H]1CCC2=O,water,298,-3.4843,mol/L
CCN1C=C(C(O)=O)C(=O)c2ccc(C)nc12,water,298,-3.3659,mol/L
CCCc1cc(F)ccc1O,water,298,-1.887,mol/L
NC(=O)N(CCO)/N=C/c1oc(cc1)[N+]([O-])=O,water,298,-2.6852,mol/L
NC#N,water,298,1.0753,mol/L
OC(=O)c1ccccc1C(F)(F)F,water,298,-1.5978,mol/L
C[C@]12CCC(=O)C=C1CC[C@@H]3[C@@H]2CC[C@@]4(C)[C@H]3CC[C@@]4(O)C#C,water,298,-5.6576,mol/L
C[C@H](CCC(O)=O)[C@H]1CC[C@H]2[C@@H]3CC[C@@H]4C[C@H](O)CC[C@]4(C)[C@H]3CC[C@]12C,water,298,-6.0,mol/L
C[C@]12CC[C@H]3[C@@H](CCC4=CC(=O)CC[C@H]34)[C@@H]1CC[C@@H]2O,water,298,-1.9484,mol/L
C[C@H]1C[C@H]2OC(=O)[C@@H](C)[C@H]2[C@H](O)C3=C(C)C(=O)C[C@H]13,water,298,-1.945,mol/L
CCC(=O)N(C1CCN(CC1)CCc2ccccc2)c3ccccc3,water,298,-3.2259,mol/L
CC(=O)NCc1c(I)c(NC(C)=O)c(I)c(C(O)=O)c1I,water,298,-2.3208,mol/L
CC[C@H](C)[C@@H](N)C(O)=O,water,298,-0.7875,mol/L
OC(=O)Cc1cc(O)ccc1O,water,298,0.7037,mol/L
Nc1ncc2[nH]cnc2n1,water,298,-1.21,mol/L
OC1CCOC1,water,298,1.055,mol/L
OC(=O)c1ccc(F)c(c1)[N+]([O-])=O,water,298,-1.5809,mol/L
Fc1cccc(CCl)c1,water,298,-2.5436,mol/L
CCC[C@H]1CCCCN1,water,298,-0.8493,mol/L
COCC(F)F,water,298,-0.2836,mol/L
NC(N)=NC#N,water,298,-0.3087,mol/L
Nc1cccnc1,water,298,1.0263,mol/L
NC(=O)NCC(O)=O,water,298,-0.5809,mol/L
NC(=O)NCCC(O)=O,water,298,-0.8014,mol/L
CC1(C)C2CCC1(C)[C@@H](O)C2,water,298,-2.319,mol/L
CC1(C)[C@H]2CC[C@@]1(C)C(=O)C2,water,298,-3.1825,mol/L
O[C@@]12CCO[C@@]1(Nc3ccccc23)[C@@H]4C[C@@H]5CCN4C[C@@H]5C=C,water,298,-2.6706,mol/L
CC[C@@]12CCCN3CC[C@@]4([C@@H](CC1)N(C(C)=O)c5c(OC)cccc45)[C@@H]23,water,298,-1.3269,mol/L
OC(=O)[C@@]1(O)c2ccccc2c3ccccc13,water,298,-1.9657,mol/L
CCC(=O)O[C@@](Cc1ccccc1)([C@H](C)CN(C)C)c2ccccc2,water,298,-5.0097,mol/L
CC12CCC(CC1)C(C)(C)O2,water,298,-1.6442,mol/L
ClCC[S](=O)(=O)CCCl,water,298,-1.5031,mol/L
CN=C(N)N,water,298,-1.6135,mol/L
Nc1ccc(cc1)[S](=O)(=O)c2sc(N)nc2,water,298,-2.805,mol/L
Cc1ccc(cc1)[S](=O)(=O)N(Cl)Cl,water,298,-3.466,mol/L
CC(=O)C1CC(CC(O)=O)C1(C)C,water,298,-0.5752,mol/L
C[C@H](CCC(O)=O)[C@H]1CC[C@H]2[C@@H]3[C@H](O)C[C@@H]4C[C@H](O)CC[C@]4(C)[C@H]3CC[C@]12C,water,298,-3.6402,mol/L
C[C@]12CC[C@H]3C(=CCc4cc(O)ccc34)[C@@H]1CCC2=O,water,298,-5.2795,mol/L
Oc1ccc2c(OCC3(O)CC4=CC(=O)C(=CC4=C23)O)c1O,water,298,-2.6994,mol/L
C[C@H](CCC(=O)NCC(O)=O)[C@H]1CC[C@H]2[C@@H]3[C@H](O)C[C@@H]4C[C@H](O)CC[C@]4(C)[C@H]3C[C@H](O)[C@]12C,water,298,-5.1495,mol/L
COc1cc(cc(OC)c1OC)[C@H]2[C@H]3[C@H](COC3=O)[C@@H](O)c4cc5OCOc5cc24,water,298,-3.6174,mol/L
[Cl-].Cc1cc2nc3c(C)c(N)ccc3[n+](c4ccccc4)c2cc1N,water,298,-0.8462,mol/L
CN1C(=O)N(C)c2ncn(CC(O)CO)c2C1=O,water,298,0.1172,mol/L
C1Cc2c3ccc4ccccc4c3cc5cccc1c25,water,298,-7.8613,mol/L
Nc1cccc2cccc(N)c12,water,298,-2.2698,mol/L
CN(c1c(cc(cc1[N+]([O-])=O)[N+]([O-])=O)[N+]([O-])=O)[N+]([O-])=O,water,298,-3.5889,mol/L
OC[C@H]1O[C@@H](O[C@@H]2OC=C[C@H]3[C@H](O)C=C(CO)[C@@H]23)[C@H](O)[C@@H](O)[C@@H]1O,water,298,0.0119,mol/L
Oc1ccc(c(O)c1)C2=C(O)C(=O)c3c(O)cc(O)cc3O2,water,298,-3.0824,mol/L
Cc1cc(C)c(c(C)c1)C(O)=O,water,298,-2.3566,mol/L
Cc1cc(O)c(C(O)=O)c(O)c1,water,298,-2.0496,mol/L
[O-][N+](=O)C1C(=O)NC(=O)NC1=O,water,298,-2.284,mol/L
C[C@H]1[C@@H]2CC[C@@]3(C)C=CC(=O)C(=C3[C@H]2OC1=O)C,water,298,-3.0905,mol/L
C[C@]12CC[C@H](O)C[C@@H]1CC[C@@H]3[C@@H]2CC[C@@]4(C)[C@H]3CCC4=O,water,298,-4.1577,mol/L
CN1C2CCC1[C@H]([C@@H](O)C2)C(O)=O,water,298,-0.0173,mol/L
CN1C(=O)N(C)c2nncnc2C1=O,water,298,-1.9849,mol/L
COc1ccc2C=CC(=O)Oc2c1CC=C(C)C,water,298,-4.3087,mol/L
CCC(C)c1cc(cc(c1OC(=O)C=C(C)C)[N+]([O-])=O)[N+]([O-])=O,water,298,-5.5083,mol/L
CC1CCC2C(C)C(=O)OCC12,water,298,-1.9249,mol/L
OC(C1CC2CCN1CC2C=C)c3ccnc4ccccc34,water,298,-3.1679,mol/L
O[C@H]1CCN2C(=O)c3ccccc3N=C12,water,298,-2.106,mol/L
CN1C[C@@H]2C[C@@H](C1)C3=CC=CC(=O)N3C2,water,298,0.6484,mol/L
O=C1NC(=O)c2nccnc2N1,water,298,-2.1183,mol/L
CC1=C(CCC(O)=O)C(=O)NC1=O,water,298,-0.6608,mol/L
O[C@@H]1C[C@@H](O)[C@H](O)C(O)[C@H]1O,water,298,-0.1739,mol/L
CC(C)c1ccc(C)c2ccc(C)c2c1,water,298,-5.4752,mol/L
COC(=O)c1ccccc1OC2OC(COC3OCC(O)C(O)C3O)C(O)C(O)C2O,water,298,-0.7418,mol/L
O=C1NC=Cc2ccccc12,water,298,-2.4842,mol/L
Cc1cc(O)c2c(O)c3c(O)cccc3cc2c1,water,298,-3.0585,mol/L
NC1=NC(=O)C2=C(N1)NC(=O)C(=O)N2,water,298,-5.1655,mol/L
OC(=O)C(=C)c1ccccc1,water,298,-2.0568,mol/L
C[C@H](N)[C@@H](O)c1ccccc1,water,298,-0.8786,mol/L
OC[C@H]1O[C@H](O)[C@H](O)[C@@H](O)[C@@H]1O,water,298,0.4433,mol/L
OC1=CC(=O)C[C@@H](C1)c2ccccc2,water,298,-2.5113,mol/L
C1CC[C@H](NC1)c2cccnc2,water,298,0.7898,mol/L
OCc1cc(O)ccc1O,water,298,0.8534,mol/L
O=Nc1ccc(NNC(=O)c2ccccc2)cc1,water,298,-4.6835,mol/L
O=C(NN\C=C/1C=CC=CC1=O)c2ccncc2,water,298,-3.6835,mol/L
C1Cc2ccccc2N1,water,298,-1.0427,mol/L
C\C=C(/C)C=O,water,298,-0.527,mol/L
CC1OCCO1,water,298,0.8789,mol/L
O=C1CC2CCC1C2,water,298,-1.7565,mol/L
OC(O)=C1OC(=CC(=O)C1=O)C(O)=O,water,298,-1.377,mol/L
COc1cc(ccc1O)C(C)=O,water,298,-1.5216,mol/L
CCC[C@@H](N)C(O)=O,water,298,-0.0687,mol/L
C\C(=C\C(O)=O)C(O)=O,water,298,0.7795,mol/L
CC(C)c1ccc(C)c(O)c1,water,298,-2.0798,mol/L
CC1CC(CC(C)(C)N1)OC(=O)c2ccccc2,water,298,-1.922,mol/L
OC(=O)C(=O)Nc1ccccc1,water,298,-1.3019,mol/L
ClCCC(=O)NCc1ccccc1,water,298,-3.2959,mol/L
NC(=O)NC(=O)C=CC(O)=O,water,298,-1.9202,mol/L
CCOC(=S)SSC(=S)OCC,water,298,-4.9432,mol/L
CCCCC(=O)CCCC,water,298,-2.5935,mol/L
C1COC1,water,298,1.236,mol/L
O[S](=O)(=O)C[S](O)(=O)=O,water,298,1.1446,mol/L
C\C=C/C(O)=O,water,298,1.065,mol/L
CC(C)CC(O)=O,water,298,-0.3996,mol/L
Nc1ccncc1,water,298,-0.0529,mol/L
Nc1ccccn1,water,298,0.9757,mol/L
C1CSCCS1,water,298,-1.6029,mol/L
OC(=O)CCCCCCC(O)=O,water,298,-1.1673,mol/L
OC(=O)CCCCCCCCCCCC(O)=O,water,298,-2.2119,mol/L
ClCCSCCCl,water,298,-2.3666,mol/L
OC(=O)\C=C/C=C\C(O)=O,water,298,-2.8516,mol/L
IC#N,water,298,-0.6333,mol/L
CC(C)(C)Br,water,298,-2.3586,mol/L
CC1(C)C2CCC1(C)C(O)C2,water,298,-2.3202,mol/L
CC(C)(C(O)=O)C(C)(CC(O)=O)C(O)=O,water,298,-0.111,mol/L
CC(C)(C)CC(=O)OCC(=O)C1(O)CCC2C3CCC4=CC(=O)CCC4(C)C3C(O)CC12C,water,298,-5.5111,mol/L
[O-][N+](=O)C([N+]([O-])=O)([N+]([O-])=O)[N+]([O-])=O,water,298,-2.3381,mol/L
CN1CC[C@]23[C@H]4Oc5c(OCCN6CCOCC6)ccc(C[C@@H]1C2C=C[C@@H]4O)c35,water,298,-1.2994,mol/L
CCC1(N2CCCCC2)C(=O)NC(=O)NC1=O,water,298,-2.1562,mol/L
CCOC(=O)C(O)(c1ccc(Cl)cc1)c2ccc(Cl)cc2,water,298,-4.3982,mol/L
C[C@@H]1CC[C@@]2(OC1)O[C@H]3C[C@H]4[C@@H]5CC=C6C[C@@H](O)CC[C@]6(C)[C@H]5CC[C@]4(C)[C@H]3[C@@H]2C,water,298,-7.3166,mol/L
OC[C@H]1O[C@H](OC[C@H]2O[C@H](O[C@]3(CO)O[C@H](CO)[C@@H](O)[C@@H]3O)[C@H](O)[C@@H](O)[C@@H]2O)[C@H](O)[C@@H](O)[C@H]1O,water,298,-0.3962,mol/L
CCCO[P](=O)(OCCC)OCCC,water,298,-1.5412,mol/L
CC=C(C)C,water,298,-2.5604,mol/L
CC(C)=CCl,water,298,-1.9569,mol/L
CC(=C)CO,water,298,0.4298,mol/L
CCC(C)S,water,298,-1.8346,mol/L
CC(=C)C(C)=C,water,298,-2.4014,mol/L
C[C@@H](O)[C@H](C)O,water,298,1.0452,mol/L
CC(O)C(C)=O,water,298,1.055,mol/L
CC(C)C1=CC2=CC[C@@H]3[C@](C)(CCC[C@@]3(C)C(O)=O)[C@H]2CC1,water,298,-3.7959,mol/L
CC12CC[C@H](O)CC1CCC3C4CCC(=O)C4(C)CC(O)C23,water,298,-3.5932,mol/L
CC(O)(C(O)=O)c1ccccc1,water,298,-0.8949,mol/L
Cc1csc(N[S](=O)(=O)c2ccc(N)cc2)n1,water,298,-2.1293,mol/L
Cc1cc(N[S](=O)(=O)c2ccc(N)cc2)nc(C)n1,water,298,-2.2364,mol/L
CC(C(O)=O)C(O)=O,water,298,0.7597,mol/L
CC(C)C(N)C(O)=O,water,298,-0.1971,mol/L
CC12CCc3c(ccc4cc(O)ccc34)C1CCC2=O,water,298,-5.2436,mol/L
CC(=O)C1CCOC1=O,water,298,0.1934,mol/L
COc1cc(cc(OC)c1OC)[C@H]2[C@@H]3[C@H](COC3=O)Cc4c(O)c5OCOc5cc24,water,298,-4.5035,mol/L
Oc1ccc2c(Oc3cc(O)ccc3C24OC(=O)c5ccccc45)c1,water,298,-3.8226,mol/L
COc1ccc(C=O)c(C(O)=O)c1OC,water,298,-1.9247,mol/L
CN(C)C(=O)C(=O)N(N(C)C(C)=O)c1ccccc1,water,298,-0.5345,mol/L
C[C@]12CC[C@H]3[C@@H](CC[C@H]4CC(=O)CC[C@]34C)[C@@H]1CC[C@@H]2O,water,298,0.2571,mol/L
Oc1c(Br)cc(Br)c2cccnc12,water,298,-4.1938,mol/L
CCC1CN2CCC1CC2C(O)c3ccnc4ccc(OC)cc34,water,298,-3.0514,mol/L
O[S](=O)(=O)c1ccc2c(cccc2[S](O)(=O)=O)c1,water,298,0.5402,mol/L
CC(C)NCC(O)COc1cccc2ccccc12,water,298,-3.6202,mol/L
NC(Cc1[nH]nc2ccccc12)C(O)=O,water,298,-1.4091,mol/L
Cc1cccc(O)c1C,water,298,-1.4271,mol/L
OC(C(O)C(O)=O)C(O)=O,water,298,0.2148,mol/L
O[C@H]([C@H](O)[C@H](O)C(O)=O)[C@@H](O)C(O)=O,water,298,-0.3225,mol/L
[Na+].OCC(O)C(O)C(O)C(O)C([O-])=O,water,298,0.4321,mol/L
[Cu++].OC[C@@H](O)[C@@H](O)[C@H](O)[C@@H](O)C([O-])=O.OC[C@@H](O)[C@@H](O)[C@H](O)[C@@H](O)C([O-])=O,water,298,-0.1798,mol/L
OC(=O)c1sccc1,water,298,-1.2327,mol/L
CC(C)c1ccccc1C,water,298,-3.7606,mol/L
Oc1ccc(cc1C(=O)C(=O)c2cc(ccc2O)[N+]([O-])=O)[N+]([O-])=O,water,298,-3.5214,mol/L
CC(=O)c1ccc(O)c(O)c1O,water,298,-2.0216,mol/L
OC(=O)c1ccc(C(O)=O)c(c1)C(O)=O,water,298,-1.0003,mol/L
OC(=O)c1ccc(c(c1)[N+]([O-])=O)[N+]([O-])=O,water,298,-1.5005,mol/L
CC(C)C(CC=C)C(=O)NC(N)=O,water,298,-2.7469,mol/L
O=C1C=CNc2ccccc12,water,298,-1.366,mol/L
Oc1c2ccccc2cc3ccccc13,water,298,-4.7329,mol/L
C=C(c1ccccc1)c2ccccc2,water,298,-4.4363,mol/L
OC(=O)c1ccccc1Nc2cccc(c2)C(F)(F)F,water,298,-4.4906,mol/L
ONC1=C(CCCCC1)N=O,water,298,-1.4249,mol/L
COc1ccc2C=CC(=O)Oc2c1,water,298,-3.1221,mol/L
COc1ccccc1OCC(O)COC(N)=O,water,298,-1.5251,mol/L
[Na+].[O-]C(=O)c1ccccc1,water,298,0.5864,mol/L
[H+].[Cl-].Nc1ccc(N=Nc2ccccc2)c(N)c1,water,298,-4.0947,mol/L
CCOC(=O)COc1ccc(Cl)cc1Cl,water,298,-3.3503,mol/L
CCCCCc1ccc(O)cc1O,water,298,-1.9548,mol/L
CCN(CC)C(=O)CC(C)C,water,298,-0.5946,mol/L
CN1CSC(=S)N(C)C1,water,298,-1.7331,mol/L
OC(CI)CI,water,298,-1.3971,mol/L
CNC(=S)NC,water,298,0.9823,mol/L
COC(C)OC,water,298,1.0452,mol/L
CCCCC(C(O)=O)C(O)=O,water,298,0.4369,mol/L
CC(C)c1cccc(C)c1,water,298,-3.4994,mol/L
CN(C)c1cc(C)nc(Cl)n1,water,298,-1.2615,mol/L
OC(=O)c1cc(O)c(O)c(OC(=O)c2cc(O)c(O)c(O)c2)c1,water,298,-2.8092,mol/L
CCc1ccncc1,water,298,-0.0006,mol/L
CN1C2CCC1CC(C2)OC(=O)c3ccccc3,water,298,-2.1593,mol/L
ClN=C1C=C(Br)C(=O)C(=C1)Br,water,298,-3.7068,mol/L
CN[C@@H](Cc1ccc(O)cc1)C(O)=O,water,298,-2.1325,mol/L
CCN(CCCl)CCCl,water,298,-3.0265,mol/L
CCCCOC(=O)/C=C/c1ccccc1,water,298,-1.6112,mol/L
COCc1ccccc1,water,298,-1.6098,mol/L
CN(C)c1ccc(cc1)N=Nc2ccc(N)cc2,water,298,-4.594,mol/L
OC(=O)/C=C/c1occc1,water,298,-1.8392,mol/L
CCCCC(=O)OCC,water,298,-1.7706,mol/L
CCCCCOC(=O)CCC,water,298,-3.4212,mol/L
CCC(=O)OCC(C)C,water,298,-1.8841,mol/L
COC1CC1,water,298,-0.1176,mol/L
Br\C=C/Br,water,298,-1.3195,mol/L
OCCBr,water,298,0.9032,mol/L
CCOC,water,298,-0.0799,mol/L
CNNC,water,298,1.2211,mol/L
CC(C)CC(C)(C)C,water,298,-4.6704,mol/L
CC(=O)OC(C)(C)C,water,298,-1.1443,mol/L
C[Si]1(C)O[Si](C)(C)O[Si](C)(C)O[Si](C)(C)O[Si](C)(C)O[Si](C)(C)O1,water,298,-7.9407,mol/L
C[Si]1(C)O[Si](C)(C)O[Si](C)(C)O[Si](C)(C)O[Si](C)(C)O1,water,298,-7.3387,mol/L
Cl/C=C/[As](Cl)Cl,water,298,-2.6177,mol/L
CCCC(Cl)Cl,water,298,-2.4036,mol/L
[Ba++].[O-]C=O.[O-]C=O,water,298,-0.0557,mol/L
CC(N)CC(O)=O,water,298,0.9867,mol/L
CC(=O)CC(O)=O,water,298,0.991,mol/L
NC(=S)NC(N)=S,water,298,-1.6996,mol/L
CC1=CC(=O)CC(=O)O1,water,298,-1.1185,mol/L
ClC1CCCCC1,water,298,-2.3752,mol/L
NC(CCCC(O)=O)C(O)=O,water,298,-1.8648,mol/L
CC(C)COC=O,water,298,-1.0006,mol/L
CCCCI,water,298,-2.9587,mol/L
ClC\C=C/Cl,water,298,-1.598,mol/L
ClCOCCl,water,298,-0.7181,mol/L
C1C=CC=C1,water,298,-1.565,mol/L
NC(N)=NCC[S](O)(=O)=O,water,298,-0.6321,mol/L
CC(C)CO[N+]([O-])=O,water,298,-1.9521,mol/L
CCCCCCl,water,298,-2.7324,mol/L
[Ba++].CC([O-])=O.CC([O-])=O,water,298,0.1948,mol/L
CC(C)CCOC(N)=O,water,298,-1.4403,mol/L
CC(C)CCO[N+]([O-])=O,water,298,-2.4809,mol/L
[Sr++].CC([O-])=O.CC([O-])=O,water,298,0.1446,mol/L
CC(C)CCOCCC(C)C,water,298,-2.8984,mol/L
CCCCCCCl,water,298,-3.1224,mol/L
N#CCCCC#N,water,298,1.0263,mol/L
CCCCCCCCCCCCCCCC,water,298,-8.4007,mol/L
Nc1ccc(cc1)[S](=O)(=O)Nc2ccc(cc2)[S](N)(=O)=O,water,298,-2.7592,mol/L
COC(=O)C(C)O,water,298,0.9825,mol/L
C=C1CCOC1=O,water,298,0.1844,mol/L
C[C@H](CCC(O)=O)[C@H]1CC[C@H]2[C@@H]3[C@H](O)[C@H](O)[C@@H]4C[C@H](O)CC[C@]4(C)[C@H]3CC[C@]12C,water,298,-4.3465,mol/L
CCOC(=O)C(C1=C(O)Oc2ccccc2C1=O)C3=C(O)Oc4ccccc4C3=O,water,298,-3.4264,mol/L
CC(C)c1ccc(C)c(C(O)=O)c1O,water,298,-3.2883,mol/L
COc1ccc2nccc(C(O)C3CC4CCN3CC4C=C)c2c1.O[S](O)(=O)=O,water,298,-1.5924,mol/L
CN1C(=O)C=C(N)N(CC(C)=C)C1=O,water,298,-0.9895,mol/L
OC[C@H]1O[C@H]([C@H](O)[C@@H]1O)n2cnc3cncnc23,water,298,-0.4018,mol/L
Oc1ccc2ccccc2c1[N+]([O-])=O,water,298,-2.9758,mol/L
Cc1c(Cl)cc(Cl)c(O)c1Cl,water,298,-3.2761,mol/L
OCC(C(O)=O)c1ccccc1,water,298,-0.9195,mol/L
CN1C2CCCC1CC(=O)C2,water,298,0.4167,mol/L
NNC(=O)c1cccnc1,water,298,-0.1372,mol/L
CCCOc1ccc(cc1N)[N+]([O-])=O,water,298,-3.1592,mol/L
COC(=O)C(=O)OC,water,298,-0.2919,mol/L
CC1=C(N)NC(=O)N=C1,water,298,-0.5595,mol/L
CN1N=C(SC1=NC(C)=O)[S](N)(=O)=O,water,298,-1.8293,mol/L
Oc1cccc(c1)[N+]([O-])=O,water,298,-1.013,mol/L
OC(=O)c1cc(cc(c1)C(O)=O)C(O)=O,water,298,-0.9026,mol/L
C[C@](N)(Cc1ccc(O)c(O)c1)C(O)=O,water,298,-1.3247,mol/L
OC(=O)\C=C/C(=O)Nc1ccccc1,water,298,-2.2815,mol/L
[O-][N+](=O)c1oc(cc1)\C=N\N2CCNC2=O,water,298,-3.3572,mol/L
N[C@H](Cc1ccc(O)cc1)C(O)=O,water,298,-2.6049,mol/L
NC(Cc1ccc(O)cc1)C(O)=O,water,298,-2.6561,mol/L
NCC(=O)NCC(=O)NCC(O)=O,water,298,-0.5097,mol/L
[Zn++].CCCCC([O-])=O.CCCCC([O-])=O,water,298,-1.2722,mol/L
OCC1CO1,water,298,1.1303,mol/L
CN=C=S,water,298,-0.9832,mol/L
C[Si]1(C)O[Si](C)(C)O[Si](C)(C)O[Si](C)(C)O1,water,298,-7.7732,mol/L
NC(N)=N[N+]([O-])=O,water,298,-1.3739,mol/L
O=C1NC=CC=N1,water,298,0.6749,mol/L
CCCOC,water,298,-0.3857,mol/L
CCCC(=O)OCC(O)CO,water,298,-1.335,mol/L
[Zn++].CC([O-])=O.CC([O-])=O,water,298,0.2179,mol/L
C=CCOCC=C,water,298,-0.0206,mol/L