Solute,Solvent,Temperature_K,Solubility,Units
[Na+].CCCCCCCCCCCC(=O)N[C@@H](CCC(O)=O)C([O-])=O,water,298,-3.60911048,mol/L
CCCOC(C)OCCc1ccccc1,water,298,-3.384192904,mol/L
CCO[Si](CC(C)C)(OCC)OCC,water,298,-3.408683581,mol/L
NCCCCCCCCCCC(O)=O,water,298,-2.374446423,mol/L
COC(OC)C(C)(C)CC=C(C)C,water,298,-3.339761604,mol/L
COC(C)(C)C1CCC(=CC1)C,water,298,-3.296613578,mol/L
ClC(Cl)(Cl)Cl,water,298,-2.259599582,mol/L
[Co+3].CCN(CC)c1ccc2c(c1)[o+]c3cc(ccc3c2c4ccccc4C(O)=O)N(CC)CC.CC(C)OCCCN[S](=O)(=O)c5ccc([O-])c(c5)N=Nc6c(C)nn(c6[O-])c7ccccc7.CC(C)OCCCN[S](=O)(=O)c8ccc([O-])c(c8)N=Nc9c(C)nn(c9[O-])c%10ccccc%10,water,298,-3.235762244,mol/L
FC(F)F,water,298,-1.921934669,mol/L
ClC(Cl)(Cl)C=O,water,298,1.750615967,mol/L
[O-][N+](=O)c1cc(Cl)ccc1Cl,water,298,-3.364225398,mol/L
CC/C(C)=C/CCC(C)(O)C#C,water,298,-2.302767888,mol/L
[Mn].C[c-]1cccc1.[C-]#[O+].[C-]#[O+].[C-]#[O+],water,298,-4.338635753,mol/L
Clc1ccc(Cl)cc1,water,298,-3.248774622,mol/L
CO[Si](CCCOC(=O)C(C)=C)(OC)OC,water,298,-3.477980722,mol/L
CCCCCC(CO)CCC,water,298,-3.285625908,mol/L
CC(C)(c1ccc(O)cc1)c2ccc(O)cc2.OC(=O)C=C.ClCC3CO3,water,298,-3.680444963,mol/L
Nc1ccc(c2ccc(N)cc2[S](O)(=O)=O)c(c1)[S](O)(=O)=O,water,298,-2.623741409,mol/L
CNc1ccc(O)cc1.CNc2ccc(O)cc2.O[S](O)(=O)=O,water,298,-0.625082445,mol/L
O=C1C=CC(=O)N1c2ccccc2,water,298,-2.327317556,mol/L
Cc1ccc(cc1)N2N=C(C)CC2=O,water,298,-2.365667988,mol/L
OB(O)c1ccc(C=O)cc1,water,298,-2.267384667,mol/L
CC(=O)CC(C)(C)c1ccccc1,water,298,-2.337666283,mol/L
CCCCCOC(=O)CC,water,298,-2.250522404,mol/L
FC(F)=C(F)Cl,water,298,-2.160954298,mol/L
CCOC(C)=O,water,298,-0.041915498,mol/L
CCCCCCCCCCCCOCCO,water,298,-1.459377408,mol/L
CCOc1ccccc1,water,298,-1.183863922,mol/L
NCCCCCCCCCCC(O)=O,water,298,-2.400775362,mol/L
NC(Nc1ccc(Cl)cc1)=NC(N)=NCCCCCCN=C(N)N=C(N)Nc2ccc(Cl)cc2,water,298,-2.800595088,mol/L
[Na].CCCCCCCCCCCCO[S](=O)(=O)c1ccccc1,water,298,-2.640347252,mol/L
C\C=C1/CC2CC1C=C2,water,298,-3.176796415,mol/L
CCN(C(=O)N(CC)c1ccccc1)c2ccccc2,water,298,-3.525627796,mol/L
Clc1ccc(Cl)cc1,water,298,-3.264239165,mol/L
CCCCOC(=O)c1ccccc1N,water,298,-3.383020526,mol/L
CCCCN(CCCC)CCCC,water,298,-3.364914319,mol/L
COc1ccc(cc1O)[C@@H]2CC(=O)c3c(O)cc(O[C@@H]4O[C@H](CO[C@@H]5O[C@@H](C)[C@H](O)[C@@H](O)[C@H]5O)[C@@H](O)[C@H](O)[C@H]4O)cc3O2,water,298,-4.834880446,mol/L
CC(C)=CCC\C(C)=C\CCC(C)=O,water,298,-4.340736323,mol/L
Oc1ccccc1C(=O)OCc2ccccc2,water,298,-4.413922406,mol/L
CCCC[Sn](CCCC)(CCCC)CCCC,water,298,-4.596065772,mol/L
Fc1ccc(cc1)C(=O)c2ccc(F)cc2,water,298,-4.396503377,mol/L
[OH-].[OH-].[Mg++],water,298,-3.823802016,mol/L
[Mg++].C[O-].C[O-],water,298,-3.994369951,mol/L
[Cd++],water,298,-4.111293422,mol/L
OC(=O)CCl,water,298,-4.041930733,mol/L
COc1ccc(cc1O)[C@@H]2CC(=O)c3c(O)cc(O[C@@H]4O[C@H](CO[C@@H]5O[C@@H](C)[C@H](O)[C@@H](O)[C@H]5O)[C@@H](O)[C@H](O)[C@H]4O)cc3O2,water,298,-4.859389459,mol/L
Nc1nc(N)nc(Nc2nc(N)nc(N)n2)n1,water,298,-4.447703053,mol/L
O[S](=O)(=O)c1cccc2cc(Nc3ccccc3)cc(Nc4ccccc4)c12,water,298,-4.672502907,mol/L
CCC(C)(OOC(C)(C)C)OOC(C)(C)C,water,298,-4.45076092,mol/L
S(c1ccccc1)c2ccccc2,water,298,-4.360607869,mol/L
CCOCCCN[S](=O)(=O)c1ccc(Oc2cc(O)c3C(=O)c4ccccc4C(=O)c3c2N)cc1,water,298,-4.787470096,mol/L
Cc1ccc(Cl)cc1Cl,water,298,-4.303819503,mol/L
Clc1c(Cl)c(Cl)c2C(=O)OC(=O)c2c1Cl,water,298,-4.553119611,mol/L
ClCCO[P](=O)(OCCCl)OCCCl,water,298,-1.555607859,mol/L
OC(O)C(Cl)(Cl)Cl,water,298,0.680729805,mol/L
[Ca++].CC1=NN(c2cccc(c2)[S]([O-])(=O)=O)C(=O)C1N=Nc3cc(Cl)c(Cl)cc3[S]([O-])(=O)=O,water,298,-3.839084061,mol/L
CCO,water,298,1.233668218,mol/L
CCCCCCCCC(O)=O,water,298,-2.302242016,mol/L
CCCCCCCC(O)=O,water,298,-2.26193042,mol/L
COc1ccc(OC)cc1,water,298,-2.245531528,mol/L
C1CCC(CC1)OCCc2ccccc2,water,298,-2.418090055,mol/L
OCCCc1ccccc1,water,298,-1.242119055,mol/L
[Co++].CCC(C)(CCC(C)C)C([O-])=O.CCC(C)(CCC(C)C)C([O-])=O,water,298,-2.716017407,mol/L
C/C=C/C(=O)C1C(C)C=CCC1(C)C,water,298,-3.396366501,mol/L
O=C(OCC1CO1)c2ccc(cc2)C(=O)OCC3CO3,water,298,-3.557960056,mol/L
CCCCC/C=C/CCC=O,water,298,-3.301742894,mol/L
CC(C)=CCC\C(C)=C/CO,water,298,-2.302307279,mol/L
[Na+].[Na+].CN(CCO)c1nc(Nc2ccccc2)nc(Nc3ccc(/C=C/c4ccc(Nc5nc(Nc6ccccc6)nc(n5)N(C)CCO)cc4[S]([O-])(=O)=O)c(c3)[S]([O-])(=O)=O)n1,water,298,-3.069321152,mol/L
Cc1cc(C)c(C)c(O)c1,water,298,-2.252203004,mol/L
CC(F)(F)F,water,298,-2.043101387,mol/L
CC(C)(O)C(=O)c1ccc(OCCO)cc1,water,298,-1.469930479,mol/L
CN=C=S,water,298,-0.98322259,mol/L
CN(C(=O)N(C)c1ccccc1)c2ccccc2,water,298,-3.497557581,mol/L
O=C1CCCCCCCCCCC(=O)OCCO1,water,298,-3.533758505,mol/L
CC(C)CCCCCCCO,water,298,-3.324378497,mol/L
NO,water,298,-2.64384731,mol/L
[Co++].CCC([O-])=O.CCC([O-])=O,water,298,-0.437662317,mol/L
CCOC(=O)C1OC1c2ccccc2,water,298,-2.409651238,mol/L
CC(C)CCCC(C)(C)O,water,298,-2.286983634,mol/L
CCC(=O)OCc1ccccc1,water,298,-2.344979827,mol/L
[Zn++].CC(C)(C)CC(C)(C)CC([O-])=O.CC(C)(C)CC(C)(C)CC([O-])=O,water,298,-2.740980645,mol/L
CC(=O)OC1(CCCCC1)C#C,water,298,-2.352215179,mol/L
CCN(CC)CC,water,298,-0.137682984,mol/L
CCCCCCCC\C=C/CCCCCCCCNCCCNCCCN,water,298,-3.718391335,mol/L
CSC,water,298,-0.931218902,mol/L
[Na+].CNC([S-])=S,water,298,0.747325108,mol/L
CCOC(=O)c1ccccc1,water,298,-2.319270928,mol/L
Nc1cc(Cl)c(Cl)cc1Cl,water,298,-3.435950486,mol/L
Clc1cccc(n1)C(Cl)(Cl)Cl,water,298,-3.506108364,mol/L
OC(=O)c1cc2ccccc2cc1O,water,298,-3.417245584,mol/L
C\C=C/C=C.C/C=C/C=C.C1CC=CC1,water,298,-2.454265074,mol/L
CC(C)c1cccc(c1)C(C)CC=O,water,298,-3.677346846,mol/L
CCCC(C)C.CCCC(C)CC.CCC(C)CC.CCC(C)C(C)C,water,298,-2.715311849,mol/L
CCCCC,water,298,-2.002117911,mol/L
CC\C=C\C,water,298,-1.989810357,mol/L
[Na+].[Na+].[Na+].[Na+].[Na+].[Na+].Nc1c(N=Nc2cc(Nc3nc(Cl)nc(Nc4cccc(c4)[S](=O)(=O)CCO[S]([O-])(=O)=O)n3)ccc2[S]([O-])(=O)=O)c(cc5cc(c(N=Nc6ccc7c(cccc7[S]([O-])(=O)=O)c6[S]([O-])(=O)=O)c(O)c15)[S]([O-])(=O)=O)[S]([O-])(=O)=O,water,298,-1.277021164,mol/L
FC1CC(F)(F)C(F)(F)C1(F)F,water,298,-2.436880918,mol/L
CCCC[Sn](CCCC)(CCCC)O[Sn](CCCC)(CCCC)CCCC,water,298,-3.922851514,mol/L
CCCC(C)C.CCCC(C)CC.CCC(C)CC.CCC(C)C(C)C,water,298,-3.720177945,mol/L
CCCCC,water,298,-3.006984006,mol/L
CC\C=C\C,water,298,-2.994676453,mol/L
COc1cc(\C=C\C)ccc1O,water,298,-2.364737497,mol/L
Cc1ccc(C=O)cc1C,water,298,-2.277035079,mol/L
COc1ccc(OC)cc1,water,298,-2.290367927,mol/L
O.CC([NH3+])c1ccccc1.C[C@@H]2O[C@@H]2[P](O)([O-])=O,water,298,-0.594139338,mol/L
OC(=O)c1ccccc1C(O)=O,water,298,-1.374487532,mol/L
[Na+].[Na+].[O-]C(=O)c1ccccc1C2=C3C=C(I)C(=O)C(=C3Oc4c(I)c([O-])c(I)cc24)I,water,298,-1.099315041,mol/L
OC(=O)c1ccccc1C(O)=O,water,298,-1.375355253,mol/L
CCCCOC(C)=O,water,298,-1.219958563,mol/L
Nc1ccc(c2ccc(N)cc2[S](O)(=O)=O)c(c1)[S](O)(=O)=O,water,298,-2.691927271,mol/L
COc1cc(C=O)cc(c1O)[N+]([O-])=O,water,298,-2.44968993,mol/L
CCN(CC)c1cccc(NC(C)=O)c1,water,298,-2.469378031,mol/L
[As],water,298,-2.029511322,mol/L
[Co++].CCCCCCCCCCCCCCCCCC([O-])=O.CCCCCCCCCCCCCCCCCC([O-])=O,water,298,-3.948305426,mol/L
O=[Pb],water,298,-3.502355132,mol/L
Cc1ccccc1NC(N)=Nc2ccccc2C,water,298,-3.533884584,mol/L
CCOc1ccc2NC(C)(C)C=C(C)c2c1,water,298,-3.491985669,mol/L
CCCCCCCCCCCCCCCCN(C)C,water,298,-3.585488124,mol/L
CCCCCCCCCCO,water,298,-4.297981439,mol/L
CCCC(CC)COC(=O)CCc1cc(c(O)c(c1)C(C)(C)C)C(C)(C)C,water,298,-7.09873715,mol/L
CC1(C)CCCC2(C)C3CCC(C13)C2=C,water,298,-4.412762427,mol/L
Oc1ccccc1C(=O)OCCc2ccccc2,water,298,-4.489105335,mol/L
CCCCC(CC)COC(=O)C(C)=C,water,298,-4.405241252,mol/L
CCCCCCCCCCCC(=O)OC,water,298,-4.44131571,mol/L
CC(COC(=O)c1ccccc1)OC(=O)c2ccccc2,water,298,-4.567302938,mol/L
[Ca++].[Ca++].[Ca++].[O-][P]([O-])([O-])=O.[O-][P]([O-])([O-])=O,water,298,-4.605114666,mol/L
CCC(C)(C)C1CCCCC1OC(C)=O,water,298,-4.446203904,mol/L
CO[Si](CCCOC(=O)C(C)=C)(OC)OC,water,298,-4.517694567,mol/L
N#C[C](=[C]1CC[CH2]CC1)c2ccccc2,water,298,-4.420023997,mol/L
CC\C=C/CCOC(=O)C\C=C/CC,water,298,-4.431961554,mol/L
OC(=O)Cc1ccccc1Nc2c(Cl)cccc2Cl,water,298,-4.620257788,mol/L
[O-][N+](=O)c1ccc(CCc2ccc(cc2)[N+]([O-])=O)cc1,water,298,-4.5898858,mol/L
CC(C)(C)CC(C)(C)c1ccc(O)cc1,water,298,-4.469462233,mol/L
CCCCCCCCCc1ccc(O)cc1,water,298,-4.49802684,mol/L
COc1ccc(cc1[N+]([O-])=O)C(=O)Nc2ccc(cc2)C(N)=O,water,298,-4.653605269,mol/L
[Cl-].CCCCCCCCCCCCCCCCCC[NH+](C)C,water,298,-4.678690034,mol/L
ClCC(CCl)O[P](=O)(OC(CCl)CCl)OC(CCl)CCl,water,298,-4.789285509,mol/L
CC(C)(c1ccc(OCCO)cc1)c2ccc(OCCO)cc2,water,298,-2.655196364,mol/L
CC(C)(c1ccc(OCCO)cc1)c2ccc(OCCO)cc2,water,298,-2.656003776,mol/L
OC(=O)c1ccccc1C(O)=O,water,298,-1.377532173,mol/L
[Br-].CCCC[N+](CCCC)(CCCC)CCCC,water,298,1.332024844,mol/L
CC(C)(c1ccc(OCCO)cc1)c2ccc(OCCO)cc2,water,298,-2.660000762,mol/L
CCCCCCCCCO,water,298,-3.316905221,mol/L
[OH-].[OH-].[Cd++],water,298,-3.323633394,mol/L
Fc1ccc2O[C@@H](CCc2c1)[C@@H]3CO3.Fc4ccc5O[C@@H](CCc5c4)[C@H]6CO6.Fc7ccc8O[C@H](CCc8c7)[C@@H]9CO9.Fc%10ccc%11O[C@H](CCc%11c%10)[C@H]%12CO%12,water,298,-3.052101177,mol/L
CC(C)C1CCC(C)CC1=O,water,298,-2.350645181,mol/L
CC(C)=CCC\C(C)=C\CO,water,298,-2.351909504,mol/L
CCCCCCCCC(O)=O,water,298,-2.366810106,mol/L
CCCCCCCC(O)=O,water,298,-2.32649851,mol/L
Nc1c(Cl)cc(Cl)cc1Cl,water,298,-3.464462027,mol/L
COc1ccccc1OC,water,298,-1.314975067,mol/L
Nc1cnn(CCO)c1N.O[S](O)(=O)=O,water,298,0.444259344,mol/L
[Na+].[Na+].[O-][S](=O)(=O)c1cccc(c1)[S]([O-])(=O)=O,water,298,0.370947285,mol/L
CCCCOCCO[P](=O)(OCCOCCCC)OCCOCCCC,water,298,-2.778562332,mol/L
OC(=O)CCCCC(O)=O.C1CNCCN1,water,298,-0.545810358,mol/L
OC(O)C(Cl)(Cl)Cl,water,298,1.601000553,mol/L
CCCCCCOC,water,298,-2.245085326,mol/L
[O-][N+](=O)c1cc(ccc1Cl)C(F)(F)F,water,298,-2.533704672,mol/L
[O-][N+](=O)c1cccc(Cl)c1Cl,water,298,-3.458527028,mol/L
[O-][N+](=O)N1CN(CN(C1)[N+]([O-])=O)[N+]([O-])=O,water,298,-3.522455965,mol/L
C[C@H]1C[C@H]2[C@@H]3CCC4=CC(=O)C=C[C@]4(C)[C@@]3(F)[C@@H](O)C[C@]2(C)[C@@]1(O)C(=O)CO,water,298,-3.7709815,mol/L
C[C@]12CC[C@H]3[C@@H](CCC4=CC(=O)CC[C@]34C)[C@@H]1CCC2=O,water,298,-3.637451823,mol/L
CC(C)c1ccc(cc1)C(C)CC=O,water,298,-3.459862901,mol/L
[Ca++].CCCCCCC(O)CCCCCCCCCCC([O-])=O.CCCCCCC(O)CCCCCCCCCCC([O-])=O,water,298,-3.985975952,mol/L
CC1CC(=CC(C)C1CO)C,water,298,-2.371197393,mol/L
CC/C(C)=C/CCC(C)(O)C=C,water,298,-2.409128664,mol/L
O=C(OCC1CO1)c2ccc(C(=O)OCC3CO3)c(c2)C(=O)OCC4CO4,water,298,-2.762296476,mol/L
CC1CC(C)(CO1)c2ccccc2,water,298,-2.433237945,mol/L
CCCCC(CC)C(=O)OCC,water,298,-3.423291255,mol/L
Oc1cccc2cccnc12,water,298,-2.349605255,mol/L
[Na+].[Na+].[Na+].CCN(c1cccc(c1)[S](=O)(=O)CCO[S]([O-])(=O)=O)c2nc(Cl)nc(Nc3ccc4C(=O)C(=N/Nc5ccc(OC)cc5[S]([O-])(=O)=O)\C(=Cc4c3)[S]([O-])(=O)=O)n2,water,298,-1.161671108,mol/L
[OH-].[OH-].[Zn++],water,298,-2.185828855,mol/L
CSC,water,298,-0.981795382,mol/L
CCCCCC(=O)CC,water,298,-2.297034556,mol/L
CCOc1ccccc1OCC,water,298,-2.41045076,mol/L
C\C=C\C,water,298,-1.939465074,mol/L
OCC(O)C(O)C(O)CO,water,298,0.625274489,mol/L
CC(=C)C=C,water,298,-2.025733236,mol/L
C.O[S](O)(=O)=O,water,298,-2.250511345,mol/L
CCCCCCCC(=O)OC,water,298,-3.390433151,mol/L
CCCCCCCC/C=C/CCCCCCCCNCCCNCCCNCCCN,water,298,-3.836075758,mol/L
CC(C)CCCC(C)CCO,water,298,-3.393259787,mol/L
[Na+].[Na+].CCN1C(=C(N=Nc2ccc(cc2)[S](=O)(=O)c3ccc(cc3)N=NC4=C(O)N(CC)C(=O)C(=C4C)C[S]([O-])(=O)=O)C(=C(C[S]([O-])(=O)=O)C1=O)C)O,water,298,-2.10218738,mol/L
C.O[S](O)(=O)=O,water,298,-2.254595649,mol/L
CC(=O)c1ccccc1,water,298,-1.28038684,mol/L
C[C@]12CC[C@H]3[C@@H](CC=C4C[C@@H](O)CC[C@]34C)[C@@H]1CCC2=O,water,298,-3.65726821,mol/L
CCCCCC(O)C(/C)=C/CC,water,298,-3.431863898,mol/L
CCCCOC(=O)CCC,water,298,-2.361047779,mol/L
CCCCCCO,water,298,-1.212085607,mol/L
COc1ccc(COC(C)=O)cc1,water,298,-2.458494476,mol/L
OC(=O)c1ccccc1C(O)=O,water,298,-1.424573276,mol/L
O=CC1CCC2C3CCC(C3)C12,water,298,-2.419967647,mol/L
CC(C)c1ccccc1C(C)C.OO,water,298,-2.497713585,mol/L
Cc1cccc(C)c1O,water,298,-1.292396158,mol/L
[Re],water,298,-0.475507957,mol/L
CCC(O)c1ccccc1,water,298,-2.340367591,mol/L
CC(=O)c1cccc(c1)C(F)(F)F,water,298,-2.482107917,mol/L
Nc1ccc(Cl)cc1Cl,water,298,-2.417174258,mol/L
CC(=O)O[C@@H]1C[C@@H]2CC[C@@]1(C)C2(C)C,water,298,-3.496323842,mol/L
NN[S](=O)(=O)c1ccc(Oc2ccc(cc2)[S](=O)(=O)NN)cc1,water,298,-3.758489195,mol/L
[Sr++].[O-][P]([O-])([O-])=O,water,298,-3.468385388,mol/L
Cc1cccc(C)c1C.C2Cc3ccccc3C2.C4C=Cc5ccccc45,water,298,-3.757269876,mol/L
CC/C=C/CC/C=C/C=C,water,298,-3.34190657,mol/L
OC\C=C/CO,water,298,0.846685164,mol/L
COc1ccc(COC(C)=O)cc1,water,298,-2.466181305,mol/L
CCOCCOCCOCCOC(=O)C(C)=C,water,298,-0.603011426,mol/L
C.O[S](O)(=O)=O,water,298,-2.269201003,mol/L
CC(=O)OCC1=C(N2[C@H](SC1)[C@H](N)C2=O)C(O)=O,water,298,-2.648977722,mol/L
OC(=O)c1cc(ccc1O)[N+]([O-])=O,water,298,-2.477403573,mol/L
CCCCCCCCC(O)=O,water,298,-3.408330544,mol/L
CCCCCCCCCC(O)=O,water,298,-3.445216137,mol/L
[K].CCCCCCCCCCCCCCCCCC.O[P](O)(O)=O,water,298,-3.802339752,mol/L
CCC(C)c1ccccc1,water,298,-3.340363231,mol/L
CC(C)C,water,298,-2.977604072,mol/L
CCCC,water,298,-2.977604072,mol/L
CC,water,298,-2.691382006,mol/L
C,water,298,-2.418534161,mol/L
CCC,water,298,-2.857657623,mol/L
CC1(C)C2CC=C(CCC=O)C1C2,water,298,-3.46576061,mol/L
OC(=O)Cc1ccc(O)cc1,water,298,-0.399080411,mol/L
COc1ccc(COC(C)=O)cc1,water,298,-2.474006642,mol/L
Cc1cccc(C)c1O,water,298,-1.305413941,mol/L
[H+].[NH4+].[F-].[F-],water,298,1.023394133,mol/L
[Na+].[Na+].[Na+].[O-][S](=O)(=O)c1ccc2c(c1)C=C(C(=O)/C2=N/Nc3ccc(c4ccccc34)[S]([O-])(=O)=O)[S]([O-])(=O)=O,water,298,-1.003232841,mol/L
Nc1nc(N)nc(n1)c2ccccc2,water,298,-2.494168514,mol/L
CC(C)(C)C1CCC(CC1)OC(=O)C=C,water,298,-3.539328096,mol/L
CC(C)C,water,298,-2.983318556,mol/L
CCCC,water,298,-2.983318556,mol/L
CC,water,298,-2.69709649,mol/L
C,water,298,-2.424248645,mol/L
CCC,water,298,-2.863372106,mol/L
CCOc1ccc2NC(C)(C)C=C(C)c2c1,water,298,-3.558932458,mol/L
Brc1ccc(Br)c(C=C)c1,water,298,-4.578730408,mol/L
[Mg++],water,298,-3.559620823,mol/L
Cc1ccccc1NC(=O)c2cc3ccccc3cc2O,water,298,-4.623441954,mol/L
[Ca++].[Ca++].[Ca++].[O-][P]([O-])([O-])=O.[O-][P]([O-])([O-])=O,water,298,-4.674040021,mol/L
CC\C=C/CCOC(=O)C\C=C/CC,water,298,-4.478650579,mol/L
Oc1cc(Cl)ccc1Oc2ccc(Cl)cc2Cl,water,298,-4.648802713,mol/L
COC(=O)c1nc(Cl)c(Cl)nc1N,water,298,-4.534838609,mol/L
CCCCCCC(C)(C)S,water,298,-4.39611809,mol/L
O1[Pb]O[Pb]2O[Pb]1O2,water,298,-4.008053211,mol/L
CCCCCCCC\C=C/CCCCCCCC(=O)N(CCCC)CCCC,water,298,-4.788985441,mol/L
CC(=C)C(=O)OC1CC2CCC1(C)C2(C)C,water,298,-4.544220436,mol/L
COC(=O)c1nc(Cl)c(Cl)nc1N,water,298,-4.544324357,mol/L
CCCCCCCCCOC(C)=O,water,298,-4.47086065,mol/L
CCCCCCCCCCCCCCCCCCCCCCCCCCCCCCCCCCCCCCCCCCCCCCCCCCCCCCCCCCCCCCCCCCCCCCCCCC.CCCCCCCCCCCCCCCCCCCCCCCCCCCCCCCCCCCCC(CCCC)(CCCC)CCCCCCCCCCCCCCCC(CCCC)(CCCC)CCCCC.CCCc1cc(C)cc(C)c1.c2ccc(cc2)c3ccccc3.c4ccc5cc6ccccc6cc5c4,water,298,-5.611788269,mol/L
CCCCCCCCCCCCCCCCCCCCCCCCCCCCCC.CCCCCCCCCCCC(CC)CCCCCCC(CC)CCCCCCC.CCC1CCC(CC)CC1.Cc2cccc(C)c2.C3CCC4CC5CCCCC5CC4C3.c6ccc7ccccc7c6.c8ccc9cc%10ccccc%10cc9c8,water,298,-5.405053261,mol/L
CCCCCCCCCCCCCCCCCCCCCCC.CCCCCCCCCCCC(CCC)(CCC)CCCCCCCC.CCc1ccc2cc3cc(CC)ccc3cc2c1,water,298,-5.169894523,mol/L
CCCCCCCCCCCCCCCCCCCC.CCCCCCCC(CC)CCCC(CC)CCCC.c1ccc2cc3ccccc3cc2c1,water,298,-5.074616676,mol/L
CCCCCCCCCCCCCC.CCc1ccccc1.c2ccccc2.c3ccc4ccccc4c3.c5ccc6cc7ccccc7cc6c5,water,298,-5.041697833,mol/L
c1ccc2ccccc2c1,water,298,-4.311225605,mol/L
O=[Te]=O,water,298,-1.406869568,mol/L
Oc1ccccc1C(=O)OC2CCCCC2,water,298,-4.554076293,mol/L
CC(=C)[C@@H]1CCC(=CC1)C,water,298,-4.346837785,mol/L
CC\C=C/CCOC(=O)C\C=C/CC,water,298,-4.509709484,mol/L
CC[C@]12CC[C@H]3[C@@H](CCC4=C3CC=C(C4)OC)[C@@H]1CC[C@@H]2O,water,298,-4.702513826,mol/L
CCCCCCCCCCCC(=O)OCC(O)CO,water,298,-4.660234439,mol/L
COc1ccc(c(O)c1)C(=O)c2ccccc2,water,298,-4.580253828,mol/L
CCCCC(CC)COC(=O)CS[Sn](C)(SCC(=O)OCC(CC)CCCC)SCC(=O)OCC(CC)CCCC,water,298,-5.093262298,mol/L
CC1CCC2C(C)(C)C3CC12CC(=C3C)C(C)=O,water,298,-4.613478878,mol/L
[CaH2].O=[Zr],water,298,-4.395958005,mol/L
CC\C=C/CCOC(=O)C\C=C/CC,water,298,-4.514746925,mol/L
CCOC(=O)c1ccccc1,water,298,-2.39990224,mol/L
OC(=O)CCc1ccccc1,water,298,-1.405751413,mol/L
CCCCCCO,water,298,-1.238501136,mol/L
CC(C)=CCC\C(C)=C\C=O,water,298,-2.411668206,mol/L
[O-][N+](=O)c1ccccc1Cl,water,298,-2.426582935,mol/L
CCCCCCC1CCCC1=O,water,298,-3.451515538,mol/L
CC(C)C(=O)C(C)(C)CC=C(C)C,water,298,-3.489215864,mol/L
Oc1ccc(C=C)cc1C=C,water,298,-3.394062684,mol/L
Cc1ccccc1,water,298,-2.19581482,mol/L
CCCCCCCCO,water,298,-2.346690788,mol/L
CCC\C=C(/CC)C=O,water,298,-2.333158298,mol/L
Nc1ccc(Cl)cc1O,water,298,-2.390659928,mol/L
CCOc1ccc(cc1)C(O)=O,water,298,-2.454899746,mol/L
[OH-].[OH-].[Pb++].[Pb++].[Pb++].[O-]C([O-])=O.[O-]C([O-])=O,water,298,-5.547231918,mol/L
Cc1ccccc1,water,298,-2.201024928,mol/L
Nc1c(Cl)cc(cc1Cl)C(F)(F)F,water,298,-3.591642752,mol/L
CNCCCN1c2ccccc2CCc3ccccc13,water,298,-3.657617041,mol/L
[OH-].[OH-].[Pb++].[Pb++].[Pb++].[O-]C([O-])=O.[O-]C([O-])=O,water,298,-5.659205677,mol/L
CC(C)(C)C(=O)C(Oc1ccc(Cl)cc1)n2ccnc2,water,298,-3.703092646,mol/L
CCCCCC(CO)CCC,water,298,-3.436011767,mol/L
[Zr+4].CCC([O-])=O,water,298,-3.452196353,mol/L
CCCCCCCCC(O)CO,water,298,-2.478578955,mol/L
Cc1ccccc1,water,298,-2.201774358,mol/L
CCC(C)C1CCCCC1=O,water,298,-2.427057806,mol/L
COc1cc(C=O)ccc1OC(=O)C(C)C,water,298,-2.588667606,mol/L
Cc1ccccc1,water,298,-2.206298299,mol/L
[O-][N+](=O)c1cc(ccc1Nc2ccccc2)[S](=O)(=O)Nc3ccccc3,water,298,-2.810103214,mol/L
OC(C(O)C(O)=O)C(O)=O,water,298,-1.420465328,mol/L
OC(=O)c1ccccc1C(O)=O,water,298,-1.464578438,mol/L
[K+].O[C@H]([C@@H](O)C([O-])=O)C(O)=O,water,298,-1.518689377,mol/L
[Na+].[K+].O[C@H]([C@@H](O)C([O-])=O)C([O-])=O,water,298,-1.566671071,mol/L
[Sr++].Cc1cc(N\N=C/2C(=O)C(=Cc3ccccc23)C([O-])=O)c(cc1Cl)[S]([O-])(=O)=O,water,298,-3.944100371,mol/L
Cc1ccc(C)c(C)c1,water,298,-3.323250294,mol/L
C[C@]12CC[C@H]3[C@@H](CCC4=CC(=O)C=C[C@]34C)[C@@H]1CC[C@@H]2O,water,298,-3.700359651,mol/L
CCc1ccc(CC(C)(C)C#N)cc1,water,298,-3.351339264,mol/L
Cc1ccc(C)c(C)c1,water,298,-3.324011546,mol/L
ClCCCCCCCl,water,298,-3.43464733,mol/L
CCC(=O)OC1C=CC2C3CCC(C3)C12,water,298,-3.558592794,mol/L
CCOc1ccccc1,water,298,-2.331841643,mol/L
CN1C(=O)N(C(=O)C=C1C(F)(F)F)c2ccc(Cl)c(c2)C(=O)OC(C)(C)C(=O)OCC=C,water,298,-4.676528089,mol/L
CC(=C)c1ccccc1,water,298,-2.324352284,mol/L
[Fe+3].Cc1ccc(cc1)[S]([O-])(=O)=O.Cc2ccc(cc2)[S]([O-])(=O)=O.Cc3ccc(cc3)[S]([O-])(=O)=O,water,298,-0.008033112,mol/L
[Fe].[C-]#[O+].[C-]#[O+].[C-]#[O+].[C-]#[O+].[C-]#[O+],water,298,-3.648570675,mol/L
C=CCOC(=O)COc1ccccc1,water,298,-2.536373209,mol/L
[NH4+].[I-],water,298,1.08677602,mol/L
[Co++].CC([O-])=CC(C)=O.CC([O-])=CC(C)=O,water,298,-1.663554019,mol/L
Oc1cccc2cccnc12,water,298,-2.417556968,mol/L
OC(=O)CCCCC(O)=O.C1CNCCN1,water,298,-0.623286686,mol/L
CC\C(C)=C\CCC(C)=O,water,298,-2.404968152,mol/L
CCCCCCCCO,water,298,-2.373562777,mol/L
CCN(CC)CC,water,298,-0.264787782,mol/L
CN[S](=O)(=O)c1cc(OC)c(N)cc1OC,water,298,-3.651080563,mol/L
CC(=O)c1ccccc1,water,298,-1.340155045,mol/L
NC(N)=O.O[P](O)(O)=O,water,298,0.537602002,mol/L
NC(N)=O,water,298,0.957840099,mol/L
O=C1Nc2ccccc2N1,water,298,-2.392751997,mol/L
[Fe].[C-]#[O+].[C-]#[O+].[C-]#[O+].[C-]#[O+].[C-]#[O+],water,298,-3.292023351,mol/L
CC(CCOC(=O)C=C)CCOC(=O)C=C,water,298,-2.621433551,mol/L
CC(=O)c1ccccc1,water,298,-1.34733363,mol/L
Nc1cccc(Cl)c1,water,298,-1.373368413,mol/L
CCCCCCCCO,water,298,-2.382320616,mol/L
CC(=O)OC1CCC2CCCCC2C1,water,298,-3.560504415,mol/L
CCCCCCCCCCCCCCC(C)c1cc(C)cc(C)c1O,water,298,-7.335707323,mol/L
C1CC=CC1,water,298,-2.104914482,mol/L
CCl,water,298,-0.977276535,mol/L
OC(=O)CC(C[P]1(=O)Oc2ccccc2c3ccccc13)C(O)=O,water,298,-2.813509506,mol/L
N,water,298,1.493854372,mol/L
CC(C)[C@@H]1CC[C@@H](C)CC1=O,water,298,-2.463139098,mol/L
CCCOC(=O)CC,water,298,-1.340780734,mol/L
CC(C)C,water,298,-3.036001712,mol/L
CCCC,water,298,-3.036001712,mol/L
CC,water,298,-2.749779646,mol/L
C,water,298,-2.476931802,mol/L
CCC,water,298,-2.916055263,mol/L
[Ca++].CCCCCCCCCCCCCCCCCC([O-])=O.CCCCCCCCCCCCCCCCCC([O-])=O,water,298,-1.057437323,mol/L
C.O[S](O)(=O)=O,water,298,-3.333093505,mol/L
FC(F)(F)C(F)(F)F,water,298,-2.423907212,mol/L
CC(C)=CCC\C(C)=C/CCC=O,water,298,-3.538303545,mol/L
CCCC(C)C.CCCC(C)CC.CCC(C)CC.CCC(C)C(C)C,water,298,-3.85543295,mol/L
CCCCC,water,298,-3.142239011,mol/L
C1CCCCC1,water,298,-3.209112704,mol/L
CC\C=C\C,water,298,-3.129931458,mol/L