Solute,Solvent,Temperature_K,Solubility,Units
Nc1ccc(c2ccc(N)c3C(=O)c4ccccc4C(=O)c23)c5C(=O)c6ccccc6C(=O)c15,water,298,-6.293710563,mol/L
[Co++].[O-]C(=O)C([O-])=O,water,298,-5.814797051,mol/L
[Co++].[O-]C([O-])=O,water,298,-3.727767407,mol/L
[Co++].[O-]C([O-])=O,water,298,-6.723149067,mol/L
[Co],water,298,-4.42813332,mol/L
CC(C)(C)c1ccc(OC2CCCCC2O[S](=O)OCC#C)cc1,water,298,-6.21222478,mol/L
[Co++].[O-]C([O-])=O,water,298,-3.744208098,mol/L
[Co++].[O-]C([O-])=O,water,298,-3.744218228,mol/L
O=[Co],water,298,-4.544659624,mol/L
CCCCC(CC)COC(=O)OOC(C)(C)CC,water,298,-6.088238681,mol/L
[Co++].[O-]C(=O)C([O-])=O,water,298,-4.844746493,mol/L
CCOC(F)(C(F)(F)C(F)(F)C(F)(F)F)C(F)(C(F)(F)F)C(F)(F)F,water,298,-7.288734017,mol/L
[Co],water,298,-4.449174522,mol/L
[Co++].[O-]C([O-])=O,water,298,-3.754354908,mol/L
[Co++].[O-]C([O-])=O,water,298,-3.754359056,mol/L
[Co],water,298,-5.456491329,mol/L
[Sr++].Cc1cc(N\N=C\2C(=O)C=Cc3ccccc23)c(cc1Cl)[S]([O-])(=O)=O.Cc4cc(N\N=C\5C(=O)C=Cc6ccccc56)c(cc4Cl)[S]([O-])(=O)=O,water,298,-7.622859284,mol/L
O=[Cr]O[Cr]=O,water,298,-7.710520447,mol/L
O=C1NC(=O)C(C(=O)N1)=C2NC(c3ccccc23)=C4C(=O)NC(=O)NC4=O,water,298,-8.102595735,mol/L
CCCCCCCCCCCCCCCCCCOC(=O)CCc1cc(c(O)c(c1)C(C)(C)C)C(C)(C)C,water,298,-8.270149868,mol/L
CC(=O)C(N=Nc1cc(Cl)c(cc1Cl)c2cc(Cl)c(cc2Cl)N=NC(C(C)=O)C(=O)Nc3ccc(C)cc3C)C(=O)Nc4ccc(C)cc4C,water,298,-8.462687047,mol/L
COc1ccccc1NC(=O)C(N=Nc2ccc(cc2Cl)c3ccc(N=NC(C(C)=O)C(=O)Nc4ccccc4OC)c(Cl)c3)C(C)=O,water,298,-8.423596194,mol/L
O[S](=O)(=O)c1ccccc1N=C2C=CC(C=C2)=C(c3ccc(Nc4ccccc4)cc3)c5ccc(Nc6ccccc6)cc5,water,298,-8.377105088,mol/L
Nc1c(Oc2ccccc2)c(Oc3ccccc3)c(N)c4C(=O)c5ccccc5C(=O)c14,water,298,-8.238375208,mol/L
[F-].[F-].[F-].[Nd+3],water,298,-7.916311534,mol/L
COCCOCCCN1C(=O)c2c(N)c3C(=O)c4ccccc4C(=O)c3c(N)c2C1=O,water,298,-8.26504866,mol/L
Nc1c(Oc2ccccc2)c(Oc3ccccc3)c(N)c4C(=O)c5ccccc5C(=O)c14,water,298,-8.271656595,mol/L
CCOC(=O)C1=NN(C(=O)C1N=Nc2ccc(cc2Cl)c3ccc(N=NC4C(=O)N(N=C4C(=O)OCC)c5ccccc5)c(Cl)c3)c6ccccc6,water,298,-8.526560129,mol/L
[Se],water,298,-6.575187845,mol/L
O[Co]=O,water,298,-7.641280481,mol/L
Nc1c(Oc2ccccc2)c(Oc3ccccc3)c(N)c4C(=O)c5ccccc5C(=O)c14,water,298,-8.307701699,mol/L
COc1cc(NC(=O)C(N=Nc2ccc(cc2Cl)c3ccc(N=NC(C(C)=O)C(=O)Nc4ccc(C)cc4C)c(Cl)c3)C(C)=O)c(OC)cc1Cl.COc5cc(NC(=O)C(N=Nc6ccc(cc6Cl)c7ccc(N=NC(C(C)=O)C(=O)Nc8cc(OC)c(Cl)cc8OC)c(Cl)c7)C(C)=O)c(OC)cc5Cl.CC(=O)C(N=Nc9ccc(cc9Cl)c%10ccc(N=NC(C(C)=O)C(=O)Nc%11ccc(C)cc%11C)c(Cl)c%10)C(=O)Nc%12ccc(C)cc%12C,water,298,-9.052340862,mol/L
CC(C)CCCCCCCOC(=O)C(C)=C,water,298,-6.055946609,mol/L
[Co++].[O-]C([O-])=O,water,298,-3.793809628,mol/L
[Co++].[O-]C([O-])=O,water,298,-3.793820984,mol/L
O=[Ti]=O,water,298,-2.602054554,mol/L
[Fe],water,298,-6.459182565,mol/L
COc1ccccc1NC(=O)C(N=Nc2ccc(Cl)cc2[N+]([O-])=O)C(C)=O,water,298,-7.306378354,mol/L
[S--].[Co++],water,298,-6.678008025,mol/L
[Cd]=[Te],water,298,-7.101479355,mol/L
[Ba++].CCc1cc(N\N=C/2C(=O)C=Cc3ccccc23)c(cc1Cl)[S]([O-])(=O)=O.CCc4cc(N\N=C/5C(=O)C=Cc6ccccc56)c(cc4Cl)[S]([O-])(=O)=O,water,298,-5.69286018,mol/L
O=[Co],water,298,-3.605586555,mol/L
[Fe],water,298,-4.482166472,mol/L
FC(F)(F)c1ccc(Cl)c(N\N=C2/C(=O)C(=Cc3ccccc23)C(=O)Nc4cc(Cl)c(NC(=O)C5=Cc6ccccc6C(=N/Nc7cc(ccc7Cl)C(F)(F)F)\C5=O)cc4Cl)c1,water,298,-7.692243372,mol/L
Cc1cccc(Cc2ccccc2)c1Cc3ccccc3,water,298,-7.179920249,mol/L
[Co++].CCCCC(CC)C([O-])=O.CCCCC(CC)C([O-])=O,water,298,-7.282980667,mol/L
[Co++].[O-]C([O-])=O,water,298,-4.837536592,mol/L
CC(=O)C(N=Nc1ccccc1C(O)=O)C(=O)Nc2ccc3NC(=O)Nc3c2,water,298,-7.330901471,mol/L
[S--].[Co++],water,298,-6.711068126,mol/L
CC(=O)C(N=Nc1ccccc1OCCOc2ccccc2N=NC(C(C)=O)C(=O)Nc3ccc4NC(=O)Nc4c3)C(=O)Nc5ccc6NC(=O)Nc6c5,water,298,-7.634485568,mol/L
Clc1ccc(Cl)c(N\N=C2/C(=O)C(=Cc3ccccc23)C(=O)Nc4ccc5NC(=O)Nc5c4)c1,water,298,-7.461800322,mol/L
[Ca++].CC(=O)C(N=Nc1ccc(cc1[N+]([O-])=O)[S]([O-])(=O)=O)C(=O)Nc2ccccc2Cl,water,298,-5.451460763,mol/L
[Fe],water,298,-5.519097591,mol/L
[Ba++].[O-][S](=O)(=O)c1c(N\N=C\2C(=O)C=Cc3ccccc23)ccc4ccccc14.[O-][S](=O)(=O)c5c(N\N=C\6C(=O)C=Cc7ccccc67)ccc8ccccc58,water,298,-5.726958163,mol/L
[Co],water,298,-4.551036041,mol/L
C1CCCCCCCCCCC1,water,298,-7.02202606,mol/L
CCCCCCOC(=O)c1ccccc1C(=O)c2ccc(cc2O)N(CC)CC,water,298,-7.395233539,mol/L
CC(C)CCCCCCCOC(=O)C(C)=C,water,298,-6.164467987,mol/L
[B],water,298,-4.843574339,mol/L
[Co++].CCCCC(CC)C([O-])=O.CCCCC(CC)C([O-])=O,water,298,-5.347977516,mol/L
CCCCOC(=O)C1C(C(=O)OCCCC)C2(Cl)C(=C(Cl)C1(Cl)C2(Cl)Cl)Cl,water,298,-7.509558903,mol/L
O=C1N2c3cccc4cccc(N=C2c5ccccc15)c34,water,298,-7.255740326,mol/L
[Co],water,298,-4.606601026,mol/L
[Co++].CCCCC(CC)C([O-])=O.CCCCC(CC)C([O-])=O,water,298,-5.375569307,mol/L
[Co++].CCCCC(CC)C([O-])=O.CCCCC(CC)C([O-])=O,water,298,-6.379589192,mol/L
[Co++].CCCCC(CC)C([O-])=O.CCCCC(CC)C([O-])=O,water,298,-4.382911061,mol/L
[Co],water,298,-4.615934576,mol/L
[Co++].CCCCC(CC)C([O-])=O.CCCCC(CC)C([O-])=O,water,298,-6.387189919,mol/L
[Co++].CCCCC(CC)C([O-])=O.CCCCC(CC)C([O-])=O,water,298,-5.390545939,mol/L
[Cd]=[Te],water,298,-7.205591763,mol/L
Clc1ccc2Nc3cc4C(=O)c5cc(Cl)ccc5Nc4cc3C(=O)c2c1,water,298,-7.419805396,mol/L
CC(=O)C(N=Nc1ccccc1C(F)(F)F)C(=O)Nc2ccc3NC(=O)Nc3c2,water,298,-7.455526833,mol/L
Cc1ccc(cc1N\N=C2\C(=O)C(=Cc3ccccc23)C(=O)Nc4cc(C)c(NC(=O)C5=Cc6ccccc6C(=N/Nc7c(C)cccc7C(=O)OCCCl)/C5=O)cc4C)C(=O)OCCCl,water,298,-7.814241029,mol/L
CC(=O)C(N=Nc1ccc(Cl)cc1[N+]([O-])=O)C(=O)Nc2ccc3NC(=O)Nc3c2,water,298,-7.473779877,mol/L
O=[Co],water,298,-6.728539289,mol/L
CC(=C)C(=O)OCCCCCCCCCCOC(=O)C(C)=C,water,298,-6.350206051,mol/L
[S--].[Co++],water,298,-5.820738694,mol/L
[S--].[Co++],water,298,-5.823908741,mol/L
[Co++].CCCCC(CC)C([O-])=O.CCCCC(CC)C([O-])=O,water,298,-6.409530888,mol/L
Clc1cccc2C(=O)c3cc4Nc5c(Cl)cccc5C(=O)c4cc3Nc12,water,298,-6.457321758,mol/L
[Co],water,298,-5.656415197,mol/L
CCOC(F)(C(F)(F)C(F)(F)C(F)(F)F)C(F)(C(F)(F)F)C(F)(F)F,water,298,-7.49326198,mol/L
CC(=O)C(N=Nc1ccc(C)cc1[N+]([O-])=O)C(=O)Nc2ccccc2,water,298,-7.417968366,mol/L
[Co],water,298,-3.663827696,mol/L
[Co++].CCCCC(CC)C([O-])=O.CCCCC(CC)C([O-])=O,water,298,-6.432062275,mol/L
[S--].[Co++],water,298,-4.857947626,mol/L
[Co++].CCCCC(CC)C([O-])=O.CCCCC(CC)C([O-])=O,water,298,-6.436849822,mol/L
[S--].[Co++],water,298,-5.864221012,mol/L
[Co++].[O-]C(=O)C([O-])=O,water,298,-4.077239189,mol/L
[S--].[Co++],water,298,-5.867726233,mol/L
CCCCCCCCCC(=O)OOC(=O)CCCCCCCCC,water,298,-6.44975236,mol/L
Cc1ccccc1NC(=O)C2=Cc3ccccc3C(=N/Nc4ccc(Cl)cc4[N+]([O-])=O)/C2=O,water,298,-7.56321449,mol/L
[Ni++].[O-]c1ccc2ccccc2c1C=Nc3cc4NC(=O)Nc4cc3N=Cc5c([O-])ccc6ccccc56,water,298,-7.62669423,mol/L
[O--].[O--].[Pt+4],water,298,-7.26274955,mol/L
[Nd],water,298,-7.079904468,mol/L
O=[Co],water,298,-5.798391069,mol/L
[S--].[Co++],water,298,-4.901755748,mol/L
[S--].[Co++],water,298,-5.900235906,mol/L
[S--].[Co++],water,298,-4.903510167,mol/L
[S--].[Co++],water,298,-5.905194966,mol/L
[O--].[O--].[Pt+4],water,298,-6.304247319,mol/L
[Ca++].COc1ccc(NC(=O)C2=Cc3ccccc3/C(=N/Nc4cc(ccc4C)C(=O)Nc5cccc(c5)[S]([O-])(=O)=O)C2=O)cc1.COc6ccc(NC(=O)C7=Cc8ccccc8/C(=N/Nc9cc(ccc9C)C(=O)Nc%10cccc(c%10)[S]([O-])(=O)=O)C7=O)cc6,water,298,-7.050931183,mol/L
CCOc1ccccc1NC(=O)C2=Cc3ccccc3C(=N/Nc4ccc(cc4)C(N)=O)\C2=O,water,298,-7.581973548,mol/L
Cc1ccc(cc1N\N=C2/C(=O)C(=Cc3ccccc23)C(=O)Nc4ccccc4)[N+]([O-])=O,water,298,-7.55796778,mol/L
O[Co]=O,water,298,-6.899041787,mol/L
CC(=O)C(N=Nc1ccc(cc1)[N+]([O-])=O)C(=O)Nc2ccc3NC(=O)Nc3c2,water,298,-7.525540341,mol/L
Clc1ccc(Cl)c(N\N=C2\C(=O)C(=Cc3ccccc23)C(=O)Nc4ccc(NC(=O)C5=Cc6ccccc6C(=N/Nc7cc(Cl)ccc7Cl)\C5=O)c(Cl)c4)c1,water,298,-7.869298263,mol/L
CC(C)CCCCCCCO[P](=O)(Oc1ccccc1)Oc2ccccc2,water,298,-7.542358527,mol/L
CC(=C)C(=O)OCCCCCCCCCCCCOC(=O)C(C)=C,water,298,-7.484220298,mol/L
[Co],water,298,-3.730270706,mol/L
O[Co]=O,water,298,-4.928470494,mol/L
O=[P](Oc1ccccc1)(Oc2ccccc2)Oc3cccc(O[P](=O)(Oc4ccccc4)Oc5ccccc5)c3,water,298,-4.728337906,mol/L
[Co],water,298,-3.740204279,mol/L
[O--].[O--].[Pt+4],water,298,-6.326787458,mol/L
[Co],water,298,-3.741746635,mol/L
[As],water,298,-3.848893978,mol/L
CC(=O)C(N=Nc1ccc(cc1)C(=O)Nc2ccc(cc2)C(N)=O)C(=O)Nc3ccc4NC(=O)Nc4c3,water,298,-6.672808806,mol/L
O[Co]=O,water,298,-5.940659165,mol/L
Cc1cc(CCC(=O)OCCOCCOCCOC(=O)CCc2cc(C)c(O)c(c2)C(C)(C)C)cc(c1O)C(C)(C)C,water,298,-6.751431602,mol/L
[S--].[Co++],water,298,-5.943262636,mol/L
[S--].[Co++],water,298,-4.947259562,mol/L
[S--].[Co++],water,298,-5.948317527,mol/L
O=[Co],water,298,-5.868201282,mol/L
[O--].[O--].[Pt+4],water,298,-6.351849862,mol/L
[Sr++].Cc1c(Cl)cc(cc1[S](O)(=O)=O)N=Nc2c([O-])c(cc3ccccc23)C([O-])=O,water,298,-6.704522855,mol/L
CCOc1ccc(NC(=O)C(N=Nc2ccc(cc2Cl)c3ccc(N=NC(C(C)=O)C(=O)Nc4ccc(OCC)cc4)c(Cl)c3)C(C)=O)cc1,water,298,-7.830582617,mol/L
S=C(SSSSSSC(=S)N1CCCCC1)N2CCCCC2,water,298,-7.631732206,mol/L
O=C1c2ccccc2Nc3cc4C(=O)c5ccccc5Nc4cc13,water,298,-7.481773696,mol/L
CC(=O)C(N=Nc1cc(ccc1Cl)C(=O)Nc2cccc(Cl)c2C)C(=O)Nc3cc(Cl)c(NC(=O)C(N=Nc4cc(ccc4Cl)C(=O)Nc5cccc(Cl)c5C)C(C)=O)cc3C,water,298,-7.971771107,mol/L
COc1ccc(cc1N\N=C2/C(=O)C(=Cc3ccccc23)C(=O)Nc4cc(Cl)ccc4C)C(=O)Nc5ccccc5,water,298,-7.752070739,mol/L
CCCCCCCCOC(=O)c1ccccc1C(=O)OCc2ccccc2,water,298,-8.287652069,mol/L
COc1ccc(N=NC(C(C)=O)C(=O)Nc2ccccc2OC)c(c1)[N+]([O-])=O,water,298,-8.308243053,mol/L
COc1ccc(cc1N\N=C2/C(=O)C(=Cc3ccccc23)C(=O)Nc4ccc5NC(=O)Nc5c4)C(=O)Nc6ccccc6,water,298,-8.479083332,mol/L
C1CCC(CC1)N(Sc2sc3ccccc3n2)C4CCCCC4,water,298,-8.2610311,mol/L
CC(C)(C)CC(C)(C)N(c1ccccc1)c2cccc3ccccc23,water,298,-8.290038542,mol/L
COc1ccccc1NC(=O)C2=Cc3ccccc3C(=N/Nc4cc(Cl)ccc4Cl)\C2=O,water,298,-8.464567785,mol/L
CC(C)(C)c1cc(CCC(=O)OCCNC(=O)C(=O)NCCOC(=O)CCc2cc(c(O)c(c2)C(C)(C)C)C(C)(C)C)cc(c1O)C(C)(C)C,water,298,-8.667095408,mol/L
Cc1cc(C)cc(c1)N2C(=O)c3ccc4c5ccc6C(=O)N(c7cc(C)cc(C)c7)C(=O)c8ccc(c9ccc(C2=O)c3c49)c5c68,water,298,-8.631050755,mol/L
CCCCCCCCCCCCCCCCCC(=O)OC(CCCCCC)CCCCCCCCCCC(=O)OCCCCCCCCCCCCCC(C)C,water,298,-8.755372465,mol/L
CC(C)CCC[C@@H](C)CCC[C@@H](C)CCC[C@]1(C)CCc2c(C)c(O)c(C)c(C)c2O1,water,298,-8.520248661,mol/L
CC(C)CCCC(C)CCCC(C)CCCC1(C)CCc2cc(O)c(C)c(C)c2O1,water,298,-8.505869726,mol/L
[O--].[O--].[Pt+4],water,298,-8.242227883,mol/L
CCCCCCCC\C=C/CCCCCCCC(=O)OCC(CC)(CO)COC(=O)CCCCCCC\C=C/CCCCCCCC,water,298,-8.721196039,mol/L
[Ag+].[C-]#N,water,298,-8.085342482,mol/L
[O--].[Pd++],water,298,-8.062542962,mol/L
CC(=O)C(N=Nc1ccc(cc1Cl)c2ccc(N=NC(C(C)=O)C(=O)Nc3ccccc3C)c(Cl)c2)C(=O)Nc4ccccc4C,water,298,-8.914844079,mol/L
CCCCC(CC)CN[S](=O)(=O)c1ccc(cc1)N=NC2=C(O)N(CCCC)C(=O)C(=C2C)C#N,water,298,-8.797313427,mol/L
[Co],water,298,-7.867268563,mol/L
CC(C)CCCCCCCCCCOC(=O)CCCCC(=O)OCCCCCCCCCCC(C)C,water,298,-8.837299483,mol/L
CCc1cc(Cc2cc(CC)cc(c2O)C(C)(C)C)c(O)c(c1)C(C)(C)C,water,298,-8.699631563,mol/L
CC(C)CCCCCCCCCCOC(=O)CCCCC(=O)OCCCCCCCCCCC(C)C,water,298,-8.89940243,mol/L
CC(C)CCCCCCOC(=O)c1ccccc1C(=O)OCCCCCCC(C)C,water,298,-8.843666648,mol/L
[O--].[O--].[O--].[O--].[O--].[Al+3].[Al+3].[Co++].[Co++],water,298,-8.622947592,mol/L
S=[SnH2],water,298,-8.40595505,mol/L
Clc1cccc(N\N=C2/C(=O)C(=Cc3ccccc23)C(=O)Nc4cccc5c(NC(=O)C6=Cc7ccccc7C(=N/Nc8cccc(Cl)c8Cl)\C6=O)cccc45)c1Cl,water,298,-9.227651248,mol/L
CCCC(CC)COC(=O)CCc1cc(c(O)c(c1)C(C)(C)C)C(C)(C)C,water,298,-8.8768884,mol/L
[S--].[S--].[S--].[Bi+3].[Bi+3],water,298,-9.098315275,mol/L
CC(=O)C(N=Nc1ccc(cc1Cl)c2ccc(N=NC(C(C)=O)C(=O)Nc3ccccc3)c(Cl)c2)C(=O)Nc4ccccc4,water,298,-9.196938503,mol/L
[Co],water,298,-8.168298558,mol/L
O[Co]=O,water,298,-8.361439784,mol/L
O=[Co],water,298,-8.272607333,mol/L
FC(F)(F)C(F)(F)C(F)(F)N(C(F)(F)C(F)(F)C(F)(F)F)C(F)(F)C(F)(F)C(F)(F)F,water,298,-9.135966093,mol/L
CC(=O)C(N=Nc1ccc(cc1Cl)c2ccc(N=NC(C(C)=O)C(=O)Nc3ccc(C)cc3C)c(Cl)c2)C(=O)Nc4ccc(C)cc4C,water,298,-9.292010366,mol/L
[Co],water,298,-8.293237295,mol/L
CCOC(=O)OCCOc1cc(O)c2C(=O)c3ccccc3C(=O)c2c1N,water,298,-9.219529562,mol/L
[Co],water,298,-8.469328554,mol/L
CCCCC(CC)CO[P](=O)(OCC(CC)CCCC)OCC(CC)CCCC,water,298,-9.407682769,mol/L
C[Si](C)(C)O[Si](O[Si](C)(C)C)(O[Si](C)(C)C)O[Si](C)(C)C,water,298,-9.407173725,mol/L
CC(C)(c1cc(Br)c(OCC(Br)CBr)c(Br)c1)c2cc(Br)c(OCC(Br)CBr)c(Br)c2,water,298,-9.816435105,mol/L
CCCCC(CC)CO[P](=O)(OCC(CC)CCCC)OCC(CC)CCCC,water,298,-9.558950444,mol/L
[Co],water,298,-8.77035855,mol/L
CC(C)(C)c1cc(Cc2cc(c(O)c(c2)C(C)(C)C)C(C)(C)C)cc(c1O)C(C)(C)C,water,298,-10.12425988,mol/L
[Ir],water,298,-9.982761799,mol/L
[Co++].[O-]C([O-])=O,water,298,-7.081014433,mol/L
CC(C)CCCCCCCCCCCCCCCOC(=O)CC(O)C(=O)OCCCCCCCCCCCCCCCC(C)C,water,298,-7.992627599,mol/L
CC1CC(C)(C)CC(C1)(OOC(C)(C)C)OOC(C)(C)C,water,298,-6.748267009,mol/L
[Co++].CCCCCCCCCCCCCCCCCC([O-])=O.CCCCCCCCCCCCCCCCCC([O-])=O,water,298,-5.273398705,mol/L
[Co++].CCCCCCCCCCCCCCCCCC([O-])=O.CCCCCCCCCCCCCCCCCC([O-])=O,water,298,-6.289178503,mol/L
CCCCCCCCCCOC(=O)C(CC)CCCC,water,298,-8.193986458,mol/L
CC(CCOC(=O)CC(C)CC(C)(C)C)CC(C)(C)C,water,298,-8.277966587,mol/L
CCCCCCCCCCCCCCCCCC(=O)OCCCCCCCCCCCCCC,water,298,-8.983050454,mol/L
C1CO[Sb]2OCCO[Sb](O1)OCCO2,water,298,-9.024973872,mol/L
[Ba++].Cc1ccc(N\N=C\2C(=O)C(=Cc3ccccc23)C([O-])=O)c(c1)[S]([O-])(=O)=O,water,298,-7.094169049,mol/L
CCCCCCCC(=O)CC(=O)c1ccccc1,water,298,-5.883696695,mol/L
CCCCCCCC(=O)CC(=O)c1ccccc1,water,298,-5.910109938,mol/L
O=[P](Oc1ccccc1)(Oc2ccccc2)Oc3cccc(O[P](=O)(Oc4ccccc4)Oc5ccccc5)c3,water,298,-8.236817072,mol/L
COCCCN1C(=O)c2c(N)c3C(=O)c4ccccc4C(=O)c3c(N)c2C1=O,water,298,-8.181125265,mol/L
CC(C)(c1cc(Br)c(O)c(Br)c1)c2cc(Br)c(O)c(Br)c2.ClCC3CO3,water,298,-8.803730171,mol/L
O=[Cr]O[Cr]=O.O=[Mn]O[Mn]=O.O=[Fe]O[Fe]=O,water,298,-8.972710916,mol/L
[Si],water,298,-5.663160057,mol/L
[Si],water,298,-6.732486548,mol/L
[Si],water,298,-5.78573206,mol/L
Cc1cc(Cl)cc2SC(/C(=O)c12)=C/3Sc4cc(Cl)cc(C)c4C3=O,water,298,-7.931983782,mol/L
COc1ccc(N\N=C2/C(=O)C=Cc3ccccc23)c(c1)[N+]([O-])=O,water,298,-7.991102511,mol/L
Cc1cc(Cc2cc(C)cc(c2O)C3(C)CCCCC3)c(O)c(c1)C4(C)CCCCC4,water,298,-8.146786217,mol/L
S.[Mo],water,298,-5.812990187,mol/L
Brc1cc2C(=O)c3cccc4c(Br)cc5C(=O)c6cccc1c6c2c5c34,water,298,-7.633199042,mol/L
CC1=CC2=NC(=O)N=C2C=C1NNC3C(=O)NC(=O)NC3=O,water,298,-6.489140234,mol/L
Cc1ccc(Nc2nc(Nc3ccc(C)cc3)c(C#N)c(C)c2N=Nc4ccccc4C(F)(F)F)cc1,water,298,-7.717157144,mol/L
CN1C(=O)c2ccc3c4ccc5C(=O)N(C)C(=O)c6ccc(c7ccc(C1=O)c2c37)c4c56,water,298,-7.718509993,mol/L
COCCCN1C(=O)c2ccc3C(=O)n4c5ccc(C)cc5nc4c6ccc(C1=O)c2c36,water,298,-6.771509907,mol/L
Oc1cc2ccccc2cc1C(=O)N=NNc3cc(Cl)c(cc3Cl)c4ccc(cc4)c5cc(Cl)c(NN=NC(=O)c6cc7ccccc7cc6O)cc5Cl,water,298,-8.087170706,mol/L
CCCCCCCOCC(COCCCCCCC)(COCCCCCCC)COCCCCCCC,water,298,-7.94522478,mol/L
O=[Zr]=O,water,298,-6.350325564,mol/L
COc1cc(N=Nc2c(Br)cc(cc2[N+]([O-])=O)[N+]([O-])=O)c(NC(C)=O)cc1N(CC=C)CC=C,water,298,-7.009332839,mol/L
O=C1\C(Nc2ccccc12)=C/3Nc4ccccc4C3=O,water,298,-6.7197753,mol/L
CCCCCCCCCCCCCC(=O)OC(C)C,water,298,-6.733128222,mol/L
CCCC(Cl)CCCC(Cl)CCC(Cl)CCC(Cl)CCC(Cl)CCCC(Cl)CCC,water,298,-8.037692571,mol/L
CCCCCCCCCc1cccc(Nc2cccc(CCCCCCCCC)c2)c1,water,298,-7.926046985,mol/L
O=[Ti]=O,water,298,-7.203386492,mol/L
CCOC(=O)C(C#N)=C(c1ccccc1)c2ccccc2,water,298,-7.744015885,mol/L
CC(C)(C)c1cc(CCC(=O)OCCCCCCOC(=O)CCc2cc(c(O)c(c2)C(C)(C)C)C(C)(C)C)cc(c1O)C(C)(C)C,water,298,-8.106483276,mol/L
CC(C)(C)c1ccc(OP(Oc2ccc(cc2C(C)(C)C)C(C)(C)C)Oc3ccc(cc3C(C)(C)C)C(C)(C)C)c(c1)C(C)(C)C,water,298,-8.111891986,mol/L
COC(=O)CCN(CCC(=O)OC)c1ccc(cc1)N=Nc2c(Cl)cc(cc2Br)[N+]([O-])=O,water,298,-7.100221625,mol/L
COc1cc(ccc1NN=C2C=CC(=O)C=C2)N=Nc3ccc(cc3)[N+]([O-])=O,water,298,-6.963972007,mol/L
CC(=O)OCCN(CCC#N)c1ccc(cc1)N=Nc2c(Cl)cc(cc2Cl)[N+]([O-])=O,water,298,-7.051424595,mol/L
[Nb],water,298,-7.314831249,mol/L
CCCC(c1cc(c(O)cc1C)C(C)(C)C)c2cc(c(O)cc2C)C(C)(C)C,water,298,-7.980671353,mol/L
CCCCCCCCCCCCCCCCCCOC(=O)CCSCCC(=O)OCCCCCCCCCCCCCCCCCC,water,298,-8.232475788,mol/L
[Sn],water,298,-7.472430972,mol/L
CCCCC(CC)COC(=O)\C=C/C(=O)OCC(CC)CCCC,water,298,-6.975819717,mol/L
CCN(CC)c1ccc(N=Nc2c(Cl)cc(cc2[N+]([O-])=O)[N+]([O-])=O)c(NC(C)=O)c1,water,298,-7.115885254,mol/L
[Na+].C[O-].COC(=O)c1c(Cl)c(Cl)c(Cl)c(Cl)c1C#N.Cc2c(N)cccc2N,water,298,-7.171667045,mol/L
[O-][N+](=O)c1ccc(cc1)N=Nc2ccc(cc2)N(CCOC(=O)c3ccccc3)CCC#N,water,298,-7.169736136,mol/L
[Na+].C[O-].COC(=O)c1c(Cl)c(Cl)c(Cl)c(Cl)c1C#N.Nc2ccc(N)cc2,water,298,-7.186681402,mol/L
CCN(CC)c1ccc(N=Nc2c(cc(cc2C#N)[N+]([O-])=O)C#N)c(NC(C)=O)c1,water,298,-8.102753049,mol/L
CCCCCCCCCCCC(=O)OCC(C)C,water,298,-7.931847578,mol/L
CCCCCCCC\C=C\CCCCCCCC(=O)OCCC(C)C,water,298,-8.070164748,mol/L
[Ba++].CCc1cc(N\N=C/2C(=O)C=Cc3ccccc23)c(cc1Cl)[S]([O-])(=O)=O.CCc4cc(N\N=C/5C(=O)C=Cc6ccccc56)c(cc4Cl)[S]([O-])(=O)=O,water,298,-7.499975127,mol/L
FC(F)(F)C(F)(F)C(F)(F)C(F)(F)[S](F)(=O)=O,water,298,-6.042384349,mol/L
Fc1ccc(Cc2ccc(F)cc2)cc1,water,298,-6.912156137,mol/L
CC(=O)C(N=Nc1cc(ccc1Cl)C(=O)Nc2cc(ccc2Oc3ccc(Cl)cc3)C(F)(F)F)C(=O)Nc4cc(Cl)c(NC(=O)C(N=Nc5cc(ccc5Cl)C(=O)Nc6cc(ccc6Oc7ccc(Cl)cc7)C(F)(F)F)C(C)=O)cc4C,water,298,-7.69168325,mol/L
[Ba++].Cc1cc(c(N\N=C/2C(=O)C(=Cc3ccccc23)C([O-])=O)cc1Cl)[S]([O-])(=O)=O,water,298,-7.347245686,mol/L
COC(=O)CCN(CCC(=O)OC)c1ccc(N=Nc2ccc(cc2[N+]([O-])=O)[N+]([O-])=O)c(NC(C)=O)c1,water,298,-7.332831336,mol/L
CC(Br)(CBr)COc1c(Br)cc(cc1Br)C(C)(C)c2cc(Br)c(OCC(C)(Br)CBr)c(Br)c2,water,298,-7.686491033,mol/L
CC(C)(C)c1ccc(OC(=O)c2cc(c(O)c(c2)C(C)(C)C)C(C)(C)C)c(c1)C(C)(C)C,water,298,-7.341090118,mol/L
CCN(CC)c1ccc(N=Nc2c(Br)cc(cc2[N+]([O-])=O)[N+]([O-])=O)c(NC(C)=O)c1,water,298,-7.379569278,mol/L
Clc1ccc(c(Cl)c1)C(=O)OOC(=O)c2ccc(Cl)cc2Cl,water,298,-8.27876503,mol/L
CCCCC(CC)CN(CC(CC)CCCC)CC(CC)CCCC,water,298,-8.247579278,mol/L
O=C1N(CCc2ccccc2)C(=O)c3ccc4c5ccc6C(=O)N(CCc7ccccc7)C(=O)c8ccc(c9ccc1c3c49)c5c68,water,298,-8.476148795,mol/L
CCCCCCCCCCCCCCCCCc1[nH]ccn1,water,298,-7.214642713,mol/L
[Na+].C[O-].COC(=O)c1c(Cl)c(Cl)c(Cl)c(Cl)c1C#N.Cc2cc(N)ccc2N=Nc3ccc(N)cc3,water,298,-7.532414872,mol/L
CC(=C)C(=O)OCCCOc1ccc(cc1)C(C)(C)c2ccc(OCCCOC(=O)C(C)=C)cc2,water,298,-7.456475388,mol/L
[Nb],water,298,-6.791952503,mol/L
[Sr++].Cc1cc(N\N=C/2C(=O)C(=Cc3ccccc23)C([O-])=O)c(cc1Cl)[S]([O-])(=O)=O,water,298,-7.528431596,mol/L
CC(=O)OCCN(CCOC(C)=O)c1ccc(cc1)N=Nc2sc(cc2[N+]([O-])=O)[N+]([O-])=O,water,298,-7.547293505,mol/L
Clc1c(Cl)c(Cl)c2C(=O)C(c3ccc4cccc(N5C(=O)c6c(Cl)c(Cl)c(Cl)c(Cl)c6C5=O)c4n3)C(=O)c2c1Cl,water,298,-7.727396093,mol/L
CCN(CC)c1ccc(N=Nc2c(cc(cc2C#N)[N+]([O-])=O)C#N)c(C)c1,water,298,-7.47281997,mol/L
CCCCCCCCCCCCCC(=O)OCC(O)CO,water,298,-7.397875398,mol/L
CCN(CC)c1ccc2C=C(C(=O)Oc2c1)c3oc4ccc(Cl)cc4n3,water,298,-7.487633218,mol/L
[Cu++].[O-]c1ccccc1N=Cc2c([O-])ccc3ccccc23,water,298,-7.432469538,mol/L
O=[Pb]=O,water,298,-7.325679101,mol/L
CCCCCCCCCOC(=O)c1ccc(C(=O)OCCCCCCCCC)c(c1)C(=O)OCCCCCCCCC,water,298,-6.757182205,mol/L
CCO[Si](CC(C)CC(C)(C)C)(OCC)OCC,water,298,-6.441684141,mol/L
Cc1ccc(Cl)cc1N\N=C2\C(=O)C(=Cc3ccccc23)C(=O)Nc4cc(C)c(NC(=O)C5=Cc6ccccc6C(=N/Nc7cc(Cl)ccc7C)/C5=O)cc4C,water,298,-7.678196264,mol/L
O=C1c2ccccc2C(=O)c3c(Nc4nc(Nc5cccc6C(=O)c7ccccc7C(=O)c56)nc(n4)c8ccccc8)cccc13,water,298,-7.77786597,mol/L
CNC(=O)/C(C#N)=C/1NC(c2ccccc12)=C3C(=O)NC(=O)NC3=O,water,298,-7.528009903,mol/L
CC\1=NN2C(=O)c3ccccc3N=C2C1=N/Nc4ccc(Cl)cc4[N+]([O-])=O,water,298,-7.582934488,mol/L
O=C1NC(=O)C(C(=O)N1)=C2NC(c3ccccc23)=C4C(=O)NC(=O)NC4=O,water,298,-7.564993732,mol/L
CC(C)(C)c1ccc2oc(nc2c1)c3sc(cc3)c4oc5ccc(cc5n4)C(C)(C)C,water,298,-7.634046793,mol/L
CC(=O)OC/C=C(C)/C=C/C=C(C)/C=C/C1=C(C)CCCC1(C)C,water,298,-7.516530086,mol/L
CCC(=O)OC/C=C(C)/C=C/C=C(C)/C=C/C1=C(C)CCCC1(C)C,water,298,-7.534689739,mol/L
[Ba++].Cc1cc(N\N=C\2C(=O)C=Cc3ccccc23)c(cc1Cl)[S]([O-])(=O)=O.Cc4cc(N\N=C\5C(=O)C=Cc6ccccc56)c(cc4Cl)[S]([O-])(=O)=O,water,298,-7.948879289,mol/L
[H+].[Mn++].[O-]C(=O)c1cc2ccccc2c(N=Nc3ccc4ccccc4c3[S]([O-])(=O)=O)c1[O-],water,298,-7.677004362,mol/L
CC(=C\CO)/C=C/C=C(C)/C=C/C1=C(C)CCCC1(C)C,water,298,-7.457062472,mol/L
CCCCCCCCCCCCCC(=O)OCC(COC(=O)CCCCCCCCCCCCC)OC(=O)CCCCCCCCCCCCC,water,298,-8.647057001,mol/L
[Be]=O,water,298,-7.255116256,mol/L
CCCCCC1CCC(CC1)c2ccc(CCC)cc2,water,298,-6.772570424,mol/L
CCC(C)(C)c1cc(n2nc3ccccc3n2)c(O)c(c1)C(C)(C)CC,water,298,-8.545917916,mol/L
CC(=O)C(N=Nc1ccc(c(Cl)c1)c2ccc(N=NC(C(C)=O)C(=O)NN)c(Cl)c2)C(=O)NN,water,298,-8.705297393,mol/L
CCCCC(CC)COC(=O)CC(C)CC(C)(C)C,water,298,-8.432098226,mol/L