Solute,Solvent,Temperature_K,Solubility,Units
CC(C)C1=C(SC2=C(C=C(\C=C\C(=O)N3CCN(CC3)C(C)=O)C=C2)[N+]([O-])=O)C=CC=C1,water,298,-2.7,mol/L
OC1=CC2=C(C=C1)C3(OC(=O)C4=C3C=CC=C4)C5=C(O2)C=C(O)C=C5,water,298,-2.33,mol/L
N[S](=O)(=O)C1=NN=C(N[S](=O)(=O)C2=C(C=CC=C2)C(O)=O)S1,water,298,-2.32,mol/L
CC(=O)NC1=CC=C(C=C1)[S](=O)(=O)NC2=NN=C(S2)[S](N)(=O)=O,water,298,-1.62,mol/L
N[S](=O)(=O)C1=NN=C(N[S](=O)(=O)C2=C(C=CC=C2)[N+]([O-])=O)S1,water,298,-1.82,mol/L
CC(=O)N1CCN(CC1)C(=O)/C=C/C2=CC(=C(SC3=CC4=C([NH]C=C4)C=C3)C=C2)Cl,water,298,-2.74,mol/L
CN1N=C(SC1=N[S](=O)(=O)C2=C(C)C=C(C)C=C2C)[S](N)(=O)=O,water,298,-3.0,mol/L
COC1=NC(=NC(=C1)OC)NC(=O)N[S](=O)(=O)C2=NC=CC=C2C(=O)N(C)C,water,298,-3.97,mol/L
COC1=CC=C(Cl)C=C1C(=O)NCCC2=CC=C(C=C2)[S](=O)(=O)NC(=O)NC3CCCCC3,water,298,-5.09,mol/L
C1=CC2=C(C=C1)C3=CC4=CC=CC5=C4C6=C3C2=CC=C6C=C5,water,298,-9.16,mol/L
N[S](=O)(=O)C1=NN=C(N[S](=O)(=O)C2=CC=C(I)C=C2)S1,water,298,-2.2,mol/L
COC1=CC=C(C=C1)C2SC3=CC=CC=C3N(CCN(C)C)C(=O)C2OC(C)=O,water,298,-2.95,mol/L
CN1N=C(SC1=N[S](=O)(=O)C2=CC=C(Br)C=C2)[S](N)(=O)=O,water,298,-2.51,mol/L
COC(=O)C1=C(C=CS1)[S](=O)(=O)NC(=O)NC2=NC(=NC(=N2)OC)OC,water,298,-3.19,mol/L
OC(=O)C1=CN(C2=CC=C(F)C=C2)C3=C(C=C(F)C(=C3)N4CCNCC4)C1=O,water,298,-3.14,mol/L
CN1CCC(C(O)C1)C2=C(O)C=C(O)C3=C2OC(=CC3=O)C4=C(Cl)C=CC=C4,water,298,-4.26,mol/L
FC1=CC=C(C=C1)C([N]2C=CN=C2)(C3=CC=CC=C3)C4=C(F)C=CC=C4,water,298,-8.4,mol/L
CN1C(=C(O)C2=C(C=CS2)[S]1(=O)=O)C(=O)NC3=NC=CC=C3,water,298,-3.88,mol/L
NCC(=O)NC1=CC=C(C=C1)[S](=O)(=O)NC2=NN=C(S2)[S](N)(=O)=O,water,298,-1.19,mol/L
CN1N=C(SC1=N[S](=O)(=O)C2=CC=C(C=C2)[N+]([O-])=O)[S](N)(=O)=O,water,298,-2.7,mol/L
CN1N=C(SC1=N[S](=O)(=O)C2=CC=CC(=C2)[N+]([O-])=O)[S](N)(=O)=O,water,298,-2.67,mol/L
CN1CCN(CC1)C2=CC3=C(C=C2F)C(=O)C(=CN3C4=CC=C(F)C=C4)C(O)=O,water,298,-3.82,mol/L
CCNC1CN(CCCOC)[S](=O)(=O)C2=C1C=C(S2)[S](N)(=O)=O,water,298,-2.95,mol/L
CC1=NC(=C(S1)C(=O)NC2=C(Br)C=C(OC(F)(F)F)C=C2Br)C(F)(F)F,water,298,-5.52,mol/L
CN1N=C(SC1=N[S](=O)(=O)C2=CC=C(NC(C)=O)C=C2)[S](N)(=O)=O,water,298,-1.69,mol/L
CN1N=C(SC1=N[S](=O)(=O)C2=C(C=CC=C2)C(O)=O)[S](N)(=O)=O,water,298,-2.51,mol/L
OC(=O)C1=C(O)C=CC(=C1)N=NC2=CC=C(C=C2)[S](=O)(=O)NC3=CC=CC=N3,water,298,-6.14,mol/L
CCCCC(=O)N(CC1=CC=C(C=C1)C2=C(C=CC=C2)C3=NN=N[NH]3)C(C(C)C)C(O)=O,water,298,-4.2,mol/L
CN1N=C(SC1=N[S](=O)(=O)C2=CC=CC=C2[N+]([O-])=O)[S](N)(=O)=O,water,298,-2.79,mol/L
N[S](=O)(=O)C1=NN=C(N[S](=O)(=O)C2=CC(=C(Cl)C=C2)[N+]([O-])=O)S1,water,298,-1.99,mol/L
COC1=CC2=C(C=C1OC)C(=NC=N2)N3CCN(CC3)C(=O)NC4=CC=C(C=C4)[N+]([O-])=O,water,298,-6.95,mol/L
OC(=O)C1=CC=CC=C1C2=C3C=CC(=O)C=C3OC4=C2C=CC(=C4)O,water,298,-3.82,mol/L
COC1=C(N=CN=C1)N2CCN(CC2)CCC3=C[NH]C4=C3C=C(C[S](=O)(=O)N(C)C)C=C4,water,298,-3.76,mol/L
CN1N=C(SC1=N[S](=O)(=O)C2=CC=C(I)C=C2)[S](N)(=O)=O,water,298,-2.77,mol/L
CC1=NN=C(SCC2=C(N3C(SC2)C(NC(=O)C[N]4C=NN=N4)C3=O)C(O)=O)S1,water,298,-2.62,mol/L
CC(C)(C)NC(=O)C1N(CSC1(C)C)C(=O)C(O)C(CC2=CC=CC=C2)NC(=O)C3=CC=CC=C3,water,298,-3.62,mol/L
N[S](=O)(=O)C1=NN=C(N[S](=O)(=O)C2=C(F)C(=C(F)C(=C2F)F)F)S1,water,298,-1.21,mol/L
C[N]1N=NN=C1SCC2=C(N3C(SC2)C(NC(=O)C(O)C4=CC=CC=C4)C3=O)C(O)=O,water,298,-0.14,mol/L
CC1=C(C(O)=O)C2=CC(=CC=C2N=C1C3=CC=C(C=C3)C4=C(F)C=CC=C4)F,water,298,-6.39,mol/L
FC(F)(F)N=C1SC(=NC2=CC=CC=C2)N(C3=CC=CC=C3)C1=NC(F)(F)F,water,298,-5.42,mol/L
CC(C)(C)NC(=O)C1N(CSC1(C)C)C(=O)C(O)C(CC2=CC=CC=C2)NC(=O)CC3=CC=CC=C3,water,298,-3.72,mol/L
CC1CN(CCN1)C2=CC3=C(C=C2F)C(=O)C(=CN3C4=C(F)C=C(F)C=C4)C(O)=O,water,298,-3.8,mol/L
CC1=CC=C(C=C1)C(=O)NC(CC2=CC=CC=C2)C(O)C(=O)N3CSC(C)(C)C3C(=O)NC(C)(C)C,water,298,-4.11,mol/L
NC1=NC(=O)C2=C(N1)N=CC(=N2)CNC3=CC=C(C=C3)C(=O)NC(CCC(O)=O)C(O)=O,water,298,-5.44,mol/L
NC1C2CN(CC12)C3=NC4=C(C=C3F)C(=O)C(=CN4C5=CC=C(F)C=C5F)C(O)=O,water,298,-4.53,mol/L
CN1N=C(SC1=N[S](=O)(=O)C2=CC(=C(Cl)C=C2)[N+]([O-])=O)[S](N)(=O)=O,water,298,-2.47,mol/L
N[S](=O)(=O)C1=CC=C(NC2=NC(=NC=C2)N[S](=O)(=O)C3=CC=CC=C3)C=C1,water,298,-2.55,mol/L
OCC1OC2OC3C(O)C(O)C(OC3CO)OC4C(O)C(O)C(OC4CO)OC5C(O)C(O)C(OC5CO)OC6C(O)C(O)C(OC6CO)OC7C(O)C(O)C(OC7CO)OC8C(O)C(O)C(OC8CO)OC1C(O)C2O,water,298,-1.84,mol/L
CC(C)(C)NC(=O)C1N(CSC1(C)C)C(=O)C(O)C(CC2=CC=CC=C2)NC(=O)COC3=CC=CC=C3,water,298,-3.83,mol/L
N[S](=O)(=O)C1=CC=C(NC2=CC=NC(=N2)N[S](=O)(=O)CC3=CC=CC=C3)C=C1,water,298,-2.7,mol/L
CC(C)(C)NC(=O)C1N(CSC1(C)C)C(=O)C(O)C(CC2=CC=CC=C2)NC(=O)C3=CC=C(Cl)C=C3,water,298,-4.28,mol/L
N[S](=O)(=O)C1=NN=C(N[S](=O)(=O)C2=C(C=C(C=C2)[N+]([O-])=O)[N+]([O-])=O)S1,water,298,-2.91,mol/L
COC1=CC=C(C=C1)C(=O)NC(CC2=CC=CC=C2)C(O)C(=O)N3CSC(C)(C)C3C(=O)NC(C)(C)C,water,298,-4.11,mol/L
NCC(=O)NCC(=O)NC1=CC=C(C=C1)[S](=O)(=O)NC2=NN=C(S2)[S](N)(=O)=O,water,298,-1.29,mol/L
COC(=O)C1=C(C(=CC=C1)C)[S](=O)(=O)NC(=O)NC2=NC(=NC(=N2)OCC(F)(F)F)N(C)C,water,298,-5.69,mol/L
CC1=C(OCC(=O)NC(CC2=CC=CC=C2)C(O)C(=O)N3CSC(C)(C)C3C(=O)NC(C)(C)C)C(=CC=C1)C,water,298,-5.01,mol/L
CN1N=C(SC1=N[S](=O)(=O)C2=C(C=C(C=C2)[N+]([O-])=O)[N+]([O-])=O)[S](N)(=O)=O,water,298,-2.74,mol/L
CC(C)(C)NC(=O)C1N(CSC1(C)C)C(=O)C(O)C(CC2=CC=CC=C2)NC(=O)C3=CC=C(C=C3)[N+]([O-])=O,water,298,-3.98,mol/L
NC1=CC=C(C=C1)[S](=O)(=O)NC2=NC(=CS2)C3=CC=C(C=C3)C4=CC=CC=C4,water,298,-5.61,mol/L
N[S](=O)(=O)C1=CC=C(NC2=NC(=NC=C2)N[S](=O)(=O)C3=CC=C(Br)C=C3)C=C1,water,298,-2.62,mol/L
CC1=CC=C(C=C1)[S](=O)(=O)NC(=O)NC2=NC(=CC=N2)NC3=CC=C(C=C3)[S](N)(=O)=O,water,298,-4.3,mol/L
FC1=CC=CC(=C1C(=O)NC(=O)NC2=CC(=C(OC3=C(Cl)C=C(C=N3)C(F)(F)F)C(=C2)Cl)Cl)F,water,298,-8.65,mol/L
COC1=C(F)C=C(C=C1)C2=C(Cl)N=C[N]2C3=CC=C(C=C3)[S](=O)(=O)N[P](O)(O)=O,water,298,-2.55,mol/L
N[S](=O)(=O)C1=CC=C(NC2=CC=NC(=N2)N[S](=O)(=O)C3=CC(=CC=C3)C(F)(F)F)C=C1,water,298,-1.82,mol/L
N[S](=O)(=O)C1=CC=C(NC2=CC=NC(=N2)NC(=O)N[S](=O)(=O)C3=CC=C(Cl)C=C3)C=C1,water,298,-4.0,mol/L
OCC1OC2OC3C(O)C(O)C(OC3CO)OC4C(O)C(O)C(OC4CO)OC5C(O)C(O)C(OC5CO)OC6C(O)C(O)C(OC6CO)OC7C(O)C(O)C(OC7CO)OC8C(O)C(O)C(OC8CO)OC9C(O)C(O)C(OC9CO)OC1C(O)C2O,water,298,-0.75,mol/L
COCCNC(=O)C(NC(=O)C(CC(O)C(CC1=CC=CC=C1)NC(=O)OC(C)(C)C)CC2=CC(=C(OC)C(=C2)OC)OC)C(C)C,water,298,-4.0,mol/L
CC1=C(C(O)=O)C(=CC2=C1C(=O)C3=C(C(=C(O)C(=C3O)C4OC(CO)C(O)C(O)C4O)O)C2=O)O,water,298,-2.58,mol/L
N[S](=O)(=O)C1=CC=C(NC2=NC(=NC=C2)N[S](=O)(=O)C3=C(F)C(=C(F)C(=C3F)F)F)C=C1,water,298,-1.57,mol/L
CCCOC1=CC=C2C(C(C(C3=CC=C(OC)C=C3OCC(O)=O)C2=C1)C(O)=O)C4=CC5=C(OCO5)C=C4,water,298,-6.77,mol/L
CC(C)C1(NC(=O)C2CC3C(CC4=C[NH]C5=C4C3=CC=C5)N(C)C2)OC6(O)C7CCCN7C(=O)C(CC8=CC=CC=C8)N6C1=O,water,298,-5.27,mol/L
COC1C(CC2CN3CCC4=C([NH]C5=C4C=CC(=C5)OC)C3CC2C1C(=O)OC)OC(=O)C6=CC(=C(OC)C(=C6)OC)OC,water,298,-5.97,mol/L
OC(CC(C1=CC=CC=C1)C2=C(O)C3=C(OC2=O)C=CC=C3)C4=CC=C(C=C4)C5=CC=C(Br)C=C5,water,298,-4.45,mol/L
CC(C)CCCC(C)C1CCC2C3CCC4CC(C)(CCC=C(C5=CC(=C(O)C(=C5)C(O)=O)Cl)C6=CC(=C(O)C(=C6)C(O)=O)Cl)CCC4(C)C3CCC12C,water,298,-8.46,mol/L
CC(C)CC(NC(=O)C(CC1=C[NH]C=N1)NC(=O)C(CC2=CC=CC=C2)NC(=O)OC(C)(C)C)C(O)CC(=O)NC(CC(C)C)C(=O)NCCCN(CCO)CCO,water,298,-2.37,mol/L
CC(C)CC(NC(=O)C(CC1=C[NH]C=N1)NC(=O)C(CC2=CC=CC=C2)NC(=O)OC(C)(C)C)C(O)CC(=O)NC(CC(C)C)C(=O)NCCC(N)C(O)=O,water,298,-2.22,mol/L
CSCC(NC(=O)COC1=CC=CC2=C1C=CN=C2)C(=O)NC(CC3=CC=CC=C3)C(O)C(=O)N4CSCC4C(=O)NC(C)(C)C,water,298,-3.95,mol/L
CC(C)C1=C(Br)C(=C(C)C=C1C2(O[S](=O)(=O)C3=C2C=CC=C3)C4=CC(=C(O)C(=C4C(C)C)Br)C)O,water,298,-5.18,mol/L
CC(C)CC(NC(=O)C(CC1=C[NH]C=N1)NC(=O)C(CC2=CC=CC=C2)NC(=O)OC(C)(C)C)C(O)CC(=O)NC(CC(C)C)C(=O)NCC3=CC=NC=C3,water,298,-3.36,mol/L
CC(C)CC(NC(=O)C(CC1=C[NH]C=N1)NC(=O)C(CC2=CC=CC=C2)NC(=O)OC(C)(C)C)C(O)CC(=O)NC(CC(C)C)C(=O)NCC3=CC=CC=N3,water,298,-3.42,mol/L
CC(C)CC(NC(=O)C(CC1=C[NH]C=N1)NC(=O)C(CC2=CC=CC=C2)NC(=O)OC(C)(C)C)C(O)CC(=O)NC(CC(C)C)C(=O)NCC3=CC=[N+]([O-])C=C3,water,298,-2.38,mol/L
CC(C)CC(NC(=O)C(CC1=C[NH]C=N1)NC(=O)C(CC2=CC=CC=C2)NC(=O)OC(C)(C)C)C(O)CC(=O)NC(CC(C)C)C(=O)NCC3=CC=CC(=C3)CN,water,298,-2.85,mol/L
CC(C)CC(NC(=O)C(CC1=C[NH]C=N1)NC(=O)C(CC2=CC=CC=C2)NC(=O)OC(C)(C)C)C(O)CC(=O)NC(CC(C)C)C(=O)NCC(N)C3=CC=CC=N3,water,298,-3.4,mol/L
OC(=O)C1=C(I)C(=C(I)C=C1I)NC(=O)CCCCC(=O)NC2=C(I)C=C(I)C(=C2I)C(O)=O,water,298,-3.39,mol/L
CC(C)CC(NC(=O)CC(O)C(CC1CCCCC1)NC(=O)C(CC2=C[NH]C=N2)NC(=O)C(CC3=CC=CC=C3)NC(=O)OC(C)(C)C)C(=O)NCC4=CC=CC(=C4)CN,water,298,-4.7,mol/L
CC(C)CC(NC(=O)C(CC1=C[NH]C=N1)NC(=O)C(CC2=CC=CC=C2)NC(=O)OC(C)(C)C)C(O)CC(=O)NC(CC(C)C)C(=O)NC(C(O)=O)C3=CC=CC=C3,water,298,-3.13,mol/L
CCC(C)C1NC(=O)C(CC2=CC=CC=C2)NC(=O)C3CCCN3C(=O)C(CC4=CC=CC=C4)N(C)C(=O)C5CCCCN5C(=O)C6CCCCN6C1=O,water,298,-5.57,mol/L
CC(C)CC(NC(=O)C(CC1=C[NH]C=N1)NC(=O)C(CC2=CC=CC=C2)NC(=O)OC(C)(C)C)C(O)CC(=O)NC(CC(C)C)C(=O)NC(CC3=CC(=CC=C3)CN)C(O)=O,water,298,-2.82,mol/L
CCC(C)C1NC(=O)C(CC2=C[NH]C3=C2C=CC=C3)NC(=O)C4CCCN4C(=O)C(CC5=C[NH]C=N5)NC(=O)C6CCCCN6C(=O)C7CCCCN7C1=O,water,298,-2.58,mol/L
CCC(C)C1NC(=O)C(CC2=CC=CC=C2)NC(=O)C3CCCN3C(=O)C(CC4=CC=CC=C4)N(C)C(=O)C(CCCN)NC(=O)C5CCC=NN5C1=O,water,298,-2.7,mol/L
CCC(C)C1NC(=O)C(CC2=CC3=C(C=CC=C3)C=C2)NC(=O)C4CCCN4C(=O)C(CC5=C[NH]C=N5)NC(=O)C6CCCCN6C(=O)C7CCCCN7C1=O,water,298,-3.98,mol/L
CCC(C)C1NC(=O)C(CC2=C[NH]C3=C2C=CC=C3)NC(=O)C4CCCN4C(=O)C(CC5=CC=CC=C5)N(C)C(=O)C6CNCCN6C(=O)C7CCCCN7C1=O,water,298,-2.75,mol/L
CCC(C)C1NC(=O)C(CC2=C[NH]C3=C2C=CC=C3)NC(=O)C4CCCN4C(=O)C(CC5=C[NH]C=N5)NC(=O)C6CCCCN6C(=O)C7CCC=NN7C1=O,water,298,-2.6,mol/L
CCC(C)C1NC(=O)C(CC2=CC=CC=C2)NC(=O)C3CCCN3C(=O)C(CC4=CC=CC=C4)N(C)C(=O)C5CCC=NN5C(=O)C6CCC=NN6C1=O,water,298,-4.04,mol/L
CC(C)C,water,298,-3.076,mol/L
CCC(C)(C)C,water,298,-3.671,mol/L
CC(C)C(C)C,water,298,-3.583,mol/L
CCC(C)CC,water,298,-3.683,mol/L
CC1CCCC1,water,298,-3.302,mol/L
CCCC,water,298,-2.978,mol/L
CCCCC,water,298,-3.278,mol/L
CCCCCC,water,298,-3.958,mol/L
C1CCCCC1,water,298,-3.185,mol/L
CCCCCCCC,water,298,-5.238,mol/L
CCCCCCCCCCCC,water,298,-6.41,mol/L
CCCCCCC,water,298,-4.469,mol/L
C1CCCC1,water,298,-2.653,mol/L
C1CCCCCCC1,water,298,-4.152,mol/L
CC(C)(C)C,water,298,-3.337,mol/L
CCCCCCCCCCCCCC,water,298,-7.456,mol/L
ClC(Cl)(Cl)Cl,water,298,-2.288,mol/L
ClC1C(Cl)C(Cl)C(Cl)C(Cl)C1Cl,water,298,-4.6,mol/L
ClC(Cl)Cl,water,298,-1.177,mol/L
ClC(Cl)(Cl)C(Cl)(Cl)Cl,water,298,-4.488,mol/L
CBr,water,298,-0.796,mol/L
CCl,water,298,-0.977,mol/L
CI,water,298,-1.012,mol/L
BrCBr,water,298,-1.165,mol/L
ClCBr,water,298,-0.889,mol/L
CCCl,water,298,-1.055,mol/L
CCI,water,298,-1.601,mol/L
ClCCl,water,298,-0.815,mol/L
ICI,water,298,-2.334,mol/L
CC(C)Cl,water,298,-1.404,mol/L
CC(Cl)Cl,water,298,-1.291,mol/L
CC(F)F,water,298,-1.315,mol/L
FC(Cl)Cl,water,298,-0.738,mol/L
FC(F)Cl,water,298,-1.494,mol/L
FC(F)F,water,298,-1.233,mol/L
FC(F)(F)Br,water,298,-2.668,mol/L
FC(Cl)(Cl)Cl,water,298,-2.096,mol/L
FC(F)(Cl)Cl,water,298,-2.635,mol/L
FC(F)(F)Cl,water,298,-3.065,mol/L
ClC(Cl)C(Cl)(Cl)Cl,water,298,-2.625,mol/L
FC(F)(Cl)C(F)(Cl)Cl,water,298,-3.042,mol/L
FC(F)(Cl)C(F)(F)Cl,water,298,-3.119,mol/L
ClCC(Cl)Cl,water,298,-1.48,mol/L
ClC(Cl)C(Cl)Cl,water,298,-1.754,mol/L
BrCCBr,water,298,-1.656,mol/L
CCCBr,water,298,-1.701,mol/L
BrC1CCCCC1,water,298,-2.294,mol/L
CCCCBr,water,298,-2.198,mol/L
CCCCCl,water,298,-1.925,mol/L
ClCCCBr,water,298,-1.847,mol/L
CCCCCBr,water,298,-3.075,mol/L
CCCCCCBr,water,298,-3.808,mol/L
CCCCCCCCBr,water,298,-5.063,mol/L
ClCCCCl,water,298,-1.614,mol/L
FC(F)(F)C(Cl)Br,water,298,-1.704,mol/L
ClC1C(Cl)C(Cl)C(Cl)C(Cl)C1Cl,water,298,-5.163,mol/L
ClC1C(Cl)C(Cl)C(Cl)C(Cl)C1Cl,water,298,-6.083,mol/L
ClC1C(Cl)C(Cl)C(Cl)C(Cl)C1Cl,water,298,-4.464,mol/L
CCCCl,water,298,-1.461,mol/L
CF,water,298,-0.176,mol/L
CCCCCCCCl,water,298,-3.996,mol/L
CCCCCCCI,water,298,-4.81,mol/L
CCC=C,water,298,-2.405,mol/L
C=CC=C,water,298,-1.867,mol/L
C1CCC=CC1,water,298,-2.586,mol/L
CCCCCCC=C,water,298,-4.437,mol/L
CC(C)=C,water,298,-2.329,mol/L
C1C=CC=CC=C1,water,298,-2.172,mol/L
C\C=C/C,water,298,-1.93,mol/L
C=CCC=C,water,298,-2.087,mol/L
CCCCC=C,water,298,-3.226,mol/L
C=CCCC=C,water,298,-2.687,mol/L
C\C=C\C,water,298,-2.041,mol/L
C1C=CCC=C1,water,298,-2.059,mol/L
ClC(Cl)=C,water,298,-1.634,mol/L
FC(F)=C,water,298,-0.706,mol/L
ClC1=C(Cl)C(Cl)(Cl)C(=C1Cl)Cl,water,298,-5.181,mol/L
ClC=C(Cl)Cl,water,298,-2.077,mol/L
ClC(Cl)=C(Cl)C(Cl)=C(Cl)Cl,water,298,-4.911,mol/L
BrCC=C,water,298,-1.5,mol/L
ClC(Cl)=C(Cl)Cl,water,298,-2.919,mol/L
Cl\C=C/Cl,water,298,-1.442,mol/L
Cl\C=C\Cl,water,298,-1.187,mol/L
Cl\C=C\Cl,water,298,-1.442,mol/L
BrC=C,water,298,-1.275,mol/L
BrCCC=C,water,298,-2.247,mol/L
Br\C=C\Br,water,298,-1.742,mol/L
CCCC#C,water,298,-1.637,mol/L
CCOCC,water,298,-0.089,mol/L
CCOC(C)OCC,water,298,-0.429,mol/L
CC(C)OC(C)C,water,298,-1.708,mol/L
CC(C)OCCO,water,298,0.982,mol/L
COCCO,water,298,1.119,mol/L
CCOC=C,water,298,-0.858,mol/L
COCCOC,water,298,1.045,mol/L
CCOCCO,water,298,1.045,mol/L
C1OCOCO1,water,298,0.288,mol/L
CCCOCCC,water,298,-1.319,mol/L
ClCCOCCCl,water,298,-0.92,mol/L
CCCCOCCO,water,298,0.927,mol/L
CCOCCOCCO,water,298,0.872,mol/L
COCCOCCOC,water,298,0.872,mol/L
CCCCCCOCCO,water,298,-1.169,mol/L
CCOCCOCCOCC,water,298,0.79,mol/L
CCCCOCCOCCCC,water,298,-1.94,mol/L
COC,water,298,0.884,mol/L
CC1OC(C)OC(C)O1,water,298,-0.072,mol/L
CCCCOCCCC,water,298,-2.638,mol/L
CCOCOCC,water,298,-0.173,mol/L
CCOCCOCC,water,298,-0.15,mol/L
C1COCO1,water,298,1.13,mol/L
COC(C)(C)C,water,298,-0.238,mol/L
FC(F)OC(F)(F)C(F)Cl,water,298,-1.516,mol/L
FC(F)OC(Cl)C(F)(F)F,water,298,-1.616,mol/L
CCN(CC)N=O,water,298,0.016,mol/L
O=NN1CCOCC1,water,298,0.935,mol/L
CN(C)N=O,water,298,1.13,mol/L
O=NN(c1ccccc1)c2ccccc2,water,298,-3.753,mol/L
Oc1ccc2ccccc2c1N=O,water,298,-2.238,mol/L
Oc1c(ccc2ccccc12)N=O,water,298,-2.54,mol/L
CC(C)N(N=O)C(C)C,water,298,-1.001,mol/L
CCCN(CCC)N=O,water,298,-1.001,mol/L
CCCCN(CCCC)N=O,water,298,-2.096,mol/L
CCCCN(CC)N=O,water,298,-1.035,mol/L
CCCCN(C)N=O,water,298,-0.7,mol/L
CCN(C)N=O,water,298,0.532,mol/L
ClCCN(CCCl)[P]1(=O)NCCCO1,water,298,-0.815,mol/L
Clc1ccc(cc1)C(c2ccc(Cl)cc2)C(Cl)(Cl)Cl,water,298,-7.809,mol/L
CO[P](=O)(OC)C(O)C(Cl)(Cl)Cl,water,298,-0.331,mol/L
CO[P](=S)(OC)Oc1ccc(SC)c(C)c1,water,298,-4.569,mol/L
CCO[P](=S)(OCC)Oc1ccc(cc1)[N+]([O-])=O,water,298,-4.649,mol/L
ClC1CC2C(C1Cl)C3(Cl)C(=C(Cl)C2(Cl)C3(Cl)Cl)Cl,water,298,-6.864,mol/L
CNC(=O)CS[P](=S)(OC)OC,water,298,-0.962,mol/L
ClC1=C(Cl)C2(Cl)C3C4CC(C5OC45)C3C1(Cl)C2(Cl)Cl,water,298,-6.291,mol/L
CC(=O)O[Hg]c1ccccc1,water,298,-2.226,mol/L
CO[P](=O)(OC)OC=C(Cl)Cl,water,298,-1.344,mol/L
CNC(=O)Oc1cccc2ccccc12,water,298,-3.387,mol/L
ClC1=C(Cl)C2(Cl)C3C4CC(C5OC45)C3C1(Cl)C2(Cl)Cl,water,298,-6.183,mol/L
COc1ccc(cc1)C(c2ccc(OC)cc2)C(Cl)(Cl)Cl,water,298,-6.539,mol/L
Clc1ccc(cc1)C(=C(Cl)Cl)c2ccc(Cl)cc2,water,298,-6.9,mol/L
ClC1C=CC2C1C3(Cl)C(=C(Cl)C2(Cl)C3(Cl)Cl)Cl,water,298,-6.317,mol/L
CCCCS[P](=O)(SCCCC)SCCCC,water,298,-5.634,mol/L
CC(=O)CC(c1ccccc1)C2=C(O)Oc3ccccc3C2=O,water,298,-4.259,mol/L
CO[P](=S)(OC)SCN1N=Nc2ccccc2C1=O,water,298,-4.181,mol/L
CCC(C)c1cc(cc(c1O)[N+]([O-])=O)[N+]([O-])=O,water,298,-3.665,mol/L
CC(Oc1ccc(Cl)cc1C)C(O)=O,water,298,-2.539,mol/L
CC(Oc1cc(Cl)c(Cl)cc1Cl)C(O)=O,water,298,-3.579,mol/L
OC(=O)COc1cc(Cl)c(Cl)cc1Cl,water,298,-2.963,mol/L
OC(=O)COc1ccc(Cl)cc1Cl,water,298,-2.514,mol/L
OC(=O)CCCOc1ccc(Cl)cc1Cl,water,298,-3.672,mol/L
CC(O[P](C)(F)=O)C(C)(C)C,water,298,-0.938,mol/L
CCO[P](=S)(OCC)Oc1ccc(Cl)cc1Cl,water,298,-6.109,mol/L
Clc1nc(Cl)nc(Nc2ccccc2Cl)n1,water,298,-4.537,mol/L
CC(C)OC(=O)Nc1cccc(Cl)c1,water,298,-3.38,mol/L
CN(C)C(=O)Nc1ccccc1,water,298,-1.61,mol/L
CC(CCl)OC(C)CCl,water,298,-2.003,mol/L
CNC(=O)Oc1ccccc1OC(C)C,water,298,-2.051,mol/L
OC(c1ccc(Cl)cc1)(c2ccc(Cl)cc2)C(Cl)(Cl)Cl,water,298,-5.448,mol/L
CNC(=O)O\N=C\C(C)(C)SC,water,298,-1.499,mol/L
CC(Oc1ccc(Cl)cc1Cl)C(O)=O,water,298,-2.827,mol/L
CCOC(=O)CC(S[P](=S)(OC)OC)C(=O)OCC,water,298,-3.364,mol/L
CO[P](=S)(OC)Oc1ccc(c(C)c1)[N+]([O-])=O,water,298,-3.863,mol/L
CCNc1nc(Cl)nc(NCC)n1,water,298,-4.549,mol/L
CC(C)OC(=O)Nc1ccccc1,water,298,-3.001,mol/L
CC(C)Nc1nc(Cl)nc(NC(C)C)n1,water,298,-4.427,mol/L
CO[P](=O)(OC)OC(/C)=C/C(=O)N(C)C,water,298,0.625,mol/L
CN(C)C(=O)Nc1ccc(Cl)cc1,water,298,-2.936,mol/L
CCO[P](=S)(OCC)SCSCC,water,298,-3.717,mol/L
CCO[P](=S)(OCC)SCCSCC,water,298,-4.226,mol/L
CO[P](=S)(OC)Oc1cc(Cl)c(Cl)cc1Cl,water,298,-5.507,mol/L
CO[P](=S)(NC(C)C)Oc1ccc(Cl)cc1Cl,water,298,-4.798,mol/L
CN[P](=O)(OC)Oc1ccc(cc1Cl)C(C)(C)C,water,298,-3.164,mol/L
CO[P](=O)(OC)OC(Br)C(Cl)(Cl)Br,water,298,-2.28,mol/L
ClC1=C(Cl)C2(Cl)C3C4CC(C=C4)C3C1(Cl)C2(Cl)Cl,water,298,-7.332,mol/L
CCO[P](=O)(OCC)Oc1ccc(cc1)[N+]([O-])=O,water,298,-2.059,mol/L
CCC(C)N1C(=O)NC(=C(Br)C1=O)C,water,298,-2.506,mol/L
CCO[P](=S)(CC)Oc1cc(Cl)c(Cl)cc1Cl,water,298,-5.752,mol/L
CN(C)C(=O)Nc1ccc(Cl)c(Cl)c1,water,298,-3.744,mol/L
CON(C)C(=O)Nc1ccc(Cl)c(Cl)c1,water,298,-3.521,mol/L
CCO[P](=S)(OCC)Oc1cc(C)nc(n1)C(C)C,water,298,-3.881,mol/L
CCO[P](=O)(OCC)OC(=C\Cl)/c1ccc(Cl)cc1Cl,water,298,-3.462,mol/L
C1CC[C@H](NC1)c2cccnc2,water,298,0.79,mol/L
CO[P](=S)(OC)Oc1ccc(c(Cl)c1)[N+]([O-])=O,water,298,-3.872,mol/L
CCCCN(C)C(=O)Nc1ccc(Cl)c(Cl)c1,water,298,-4.758,mol/L
CN=C=S,water,298,-0.983,mol/L
CCO[P](=S)(OCC)SCS[P](=S)(OCC)OCC,water,298,-5.284,mol/L
CCCCOC(N)=O,water,298,-0.657,mol/L
CCCOC(N)=O,water,298,-0.13,mol/L
CCC(=O)Nc1ccc(Cl)c(Cl)c1,water,298,-2.986,mol/L
CO[P](=S)(OC)SCN1C(=O)c2ccccc2C1=O,water,298,-4.114,mol/L
CCCN(CCC)C(=O)SCC,water,298,-2.703,mol/L
CCO[P](=S)(OCC)SCSc1ccc(Cl)cc1,water,298,-5.736,mol/L
CCNc1nc(NC(C)C)nc(SC)n1,water,298,-3.037,mol/L
CCNc1nc(NC(C)(C)C)nc(SC)n1,water,298,-3.985,mol/L
COC1=NN(CS[P](=S)(OC)OC)C(=O)S1,water,298,-3.209,mol/L
CO[P](=S)(OC)SCSc1ccc(Cl)cc1,water,298,-5.294,mol/L
ClC1=C(Cl)C2(Cl)[C@H]3CO[S](=O)OC[C@H]3[C@]1(Cl)C2(Cl)Cl,water,298,-5.902,mol/L
CO[P](=O)(OC)OC(=C/Cl)/c1cc(Cl)c(Cl)cc1Cl,water,298,-4.522,mol/L
[Cl-].C[N+](C)(C)CCCl,water,298,0.799,mol/L
CCNc1nc(NCC)nc(SC)n1,water,298,-2.676,mol/L
ClC1C2OC2C3C1C4(Cl)C(=C(Cl)C3(Cl)C4(Cl)Cl)Cl,water,298,-6.289,mol/L
CNC(=O)Oc1cccc2CC(C)(C)Oc12,water,298,-2.84,mol/L
CCCN(CCC)c1c(cc(cc1[N+]([O-])=O)C(F)(F)F)[N+]([O-])=O,water,298,-6.048,mol/L
COc1nc(NC(C)C)nc(NC(C)C)n1,water,298,-2.478,mol/L
CNC(=O)O\N=C\C(C)(C)[S](C)(=O)=O,water,298,-1.347,mol/L
NC1=C(Cl)C(=O)N(N=C1)c2ccccc2,water,298,-2.744,mol/L
CON(C)C(=O)Nc1ccc(Cl)cc1,water,298,-2.363,mol/L
[O-][N+](=O)c1ccc(Oc2ccc(Cl)cc2Cl)cc1,water,298,-5.453,mol/L
[O-][N+](=O)c1ccc(Oc2c(Cl)cc(Cl)cc2Cl)cc1,water,298,-5.62,mol/L
COC(=O)c1c(Cl)c(Cl)c(c(Cl)c1Cl)C(=O)OC,water,298,-5.822,mol/L
Clc1c(Cl)c(C#N)c(Cl)c(C#N)c1Cl,water,298,-5.647,mol/L
CCNc1nc(Cl)nc(NC(C)C)n1,water,298,-3.887,mol/L
CCNc1nc(Cl)nc(n1)N(CC)CC,water,298,-4.06,mol/L
COc1c(Cl)ccc(Cl)c1C(O)=O,water,298,-1.691,mol/L
CC(C)N(C(=O)CCl)c1ccccc1,water,298,-2.481,mol/L
CNC(=O)Oc1ccc(N(C)C)c(C)c1,water,298,-2.357,mol/L
CCO[P](=S)(Oc1ccc(cc1)[N+]([O-])=O)c2ccccc2,water,298,-5.017,mol/L
CO[P](=S)(OC)Oc1cc(Cl)c(Br)cc1Cl,water,298,-6.086,mol/L
CN(C)C(=O)Nc1cccc(c1)C(F)(F)F,water,298,-3.436,mol/L
CCSC(=O)N1CCCCCC1,water,298,-2.286,mol/L
CCCC(C)C(=O)Nc1ccc(C)c(Cl)c1,water,298,-4.45,mol/L
CCO[P](=S)(OCC)SCN1C(=O)Oc2cc(Cl)ccc12,water,298,-5.233,mol/L
CC(C)(C)c1ccc(OC2CCCCC2O[S](=O)OCC#C)cc1,water,298,-5.846,mol/L
CNC(=O)Oc1ccc(C)c(C)c1,water,298,-2.139,mol/L
CO[P](=S)(OC)Oc1ccc(cc1Cl)[N+]([O-])=O,water,298,-4.306,mol/L
CNC(=O)Oc1cc(C)cc(c1)C(C)C,water,298,-3.357,mol/L
CNC(=O)Oc1ccccc1C(C)C,water,298,-2.684,mol/L
CO[P](=S)(OC)Oc1ccc(cc1)C#N,water,298,-3.723,mol/L
CCO[P](=S)(OCC)SCN1N=Nc2ccccc2C1=O,water,298,-4.517,mol/L
CNC(=O)Oc1cc(C)cc(C)c1,water,298,-2.581,mol/L
CCO[P](=S)(OCC)Oc1nc(Cl)c(Cl)cc1Cl,water,298,-5.496,mol/L
COC(=O)N[S](=O)(=O)c1ccc(N)cc1,water,298,-1.663,mol/L
CO[P](=S)(OC)Oc1ccc(Sc2ccc(O[P](=S)(OC)OC)cc2)cc1,water,298,-6.237,mol/L
CC(C#C)N(C)C(=O)Nc1ccc(Cl)cc1,water,298,-3.897,mol/L
CO[P]1(=S)OCc2ccccc2O1,water,298,-3.571,mol/L
CCO[P](=S)(OCC)Oc1cc(Cl)c(Br)cc1Cl,water,298,-5.952,mol/L
CC1=C(Cl)C(=O)N(C(=O)N1)C(C)(C)C,water,298,-2.485,mol/L
CC(C)Nc1nc(N)nc(Cl)n1,water,298,-2.706,mol/L
CSc1nc(NC(C)C)nc(NC(C)C)n1,water,298,-3.864,mol/L
CCCC(C)(C)C(=O)Nc1ccc(Cl)cc1,water,298,-4.022,mol/L
CCCO[P](=O)(OCCC)Oc1ccc(SC)cc1,water,298,-3.386,mol/L
CCO[P](=S)(OCC)SC(CCl)N1C(=O)c2ccccc2C1=O,water,298,-6.34,mol/L
CCO[P](=S)(Oc1ccc(cc1)C#N)c2ccccc2,water,298,-5.704,mol/L
CON(C)C(=O)Nc1ccc(Br)c(Cl)c1,water,298,-3.924,mol/L
CCO[P](=S)(OCC)O\N=C(C#N)\c1ccccc1,water,298,-4.63,mol/L
[O-][N+](=O)c1ccc(Oc2ccc(cc2[N+]([O-])=O)C(F)(F)F)cc1,water,298,-5.215,mol/L
CN(C)C(=O)Nc1ccc(C)c(Cl)c1,water,298,-3.483,mol/L
CCc1cccc(CC)c1N(COC)C(=O)CCl,water,298,-3.051,mol/L
CNC(=O)O\N=C(/C)SC,water,298,-0.447,mol/L