Solute,Solvent,Temperature_K,Solubility,Units
[La+3].[La+3].[O-]C([O-])=O.[O-]C([O-])=O.[O-]C([O-])=O,water,298,-5.567288253,mol/L
[Ca++].Cc1ccc(N\N=C\2C(=O)C(=Cc3ccccc23)C([O-])=O)c(c1)[S]([O-])(=O)=O,water,298,-5.548642222,mol/L
COc1ccc(cc1)C(=O)CSc2cccc(OC)c2,water,298,-5.377880131,mol/L
CC(C)CCCC(C)CCCC(C)(O)C#C,water,298,-5.271818382,mol/L
CCCCC(CC)COC(=O)\C=C\C(=O)OCC(CC)CCCC,water,298,-5.456575257,mol/L
CC(C)(COC(=O)c1ccccc1)COC(=O)c2ccccc2,water,298,-5.422780359,mol/L
CC(C)(COC(=O)c1ccccc1)COC(=O)c2ccccc2,water,298,-5.430204377,mol/L
CC(C)(COC(=O)c1ccccc1)COC(=O)c2ccccc2,water,298,-5.441583922,mol/L
[Ca++].O[PH]([O-])=O.O[PH]([O-])=O,water,298,-5.253149755,mol/L
CCOCOC1CCCCCCCCCCC1,water,298,-5.335319968,mol/L
Cc1cc(c(O)c(c1)C(C)(C)C)C(C)(C)C,water,298,-5.301732195,mol/L
CC(C)(c1cc(Br)c(O)c(Br)c1)c2cc(Br)c(O)c(Br)c2,water,298,-5.694106411,mol/L
CC(C)CCOC(=O)c1ccccc1C(=O)OCCC(C)C,water,298,-5.444898911,mol/L
[O--].[O--].[O--].[Sb+3].[Sb+3],water,298,-5.439358021,mol/L
[Zn++].CCN(CC)C([S-])=S.CCN(CC)C([S-])=S,water,298,-5.533333117,mol/L
O=[P](Oc1ccccc1)(Oc2ccccc2)Oc3cccc(O[P](=O)(Oc4ccccc4)Oc5ccccc5)c3,water,298,-5.738072007,mol/L
[nH]1c2ccccc2c3ccccc13,water,298,-5.21042762,mol/L
CCOc1nc(NC)nc(NC(=O)N[S](=O)(=O)c2ccccc2C(=O)OC)n1,water,298,-5.600382826,mol/L
O=C(OC1CCCCC1)c2ccccc2C(=O)OC3CCCCC3,water,298,-5.512605542,mol/L
Cc1cc(c(O)c(c1)C(C)(C)C)C(C)(C)C,water,298,-5.338803507,mol/L
CC(=O)OC1(CCC2C3CCC4=CC(=O)CCC4(C)C3CCC12C)C(C)=O,water,298,-5.566810733,mol/L
CCCCCCCC/C=C/CCCCCCCC(=O)N(CCO)CCO,water,298,-5.567720212,mol/L
CCOC(=O)C(=Cc1ccc(cc1)C=C(C(=O)OCC)C(=O)OCC)C(=O)OCC,water,298,-5.621635269,mol/L
CC(C)CCCCCCCCCCO,water,298,-5.301824028,mol/L
O=C(OCCc1ccccc1)/C=C/c2ccccc2,water,298,-5.401939627,mol/L
CCCCCCCCCCCCCCCCCC(=O)NCCO,water,298,-5.515281581,mol/L
Oc1cc2ccccc2cc1C(=O)Nc3ccc(Cl)cc3,water,298,-5.473838643,mol/L
N#Cc1ccccc1,water,298,-5.01335975,mol/L
CCCCC(Cc1cc(c(O)c(c1)C(C)(C)C)C(C)(C)C)(C(=O)OC2CC(C)(C)N(C)C(C)(C)C2)C(=O)OC3CC(C)(C)N(C)C(C)(C)C3,water,298,-5.835720369,mol/L
[Gd+3].[Gd+3].[O-]C(=O)C([O-])=O.[O-]C(=O)C([O-])=O.[O-]C(=O)C([O-])=O,water,298,-5.762343901,mol/L
CCCCCCCCCCCCO,water,298,-5.270303761,mol/L
CCCCCCC(O)CCCCCCCCCCCO,water,298,-5.457124626,mol/L
Fc1ccccc1C(=O)c2cc(Cl)ccc2NC(=O)CBr,water,298,-5.569345786,mol/L
Fc1ccccc1C(=O)c2cc(Cl)ccc2NC(=O)CBr,water,298,-5.571962026,mol/L
C[C@@H]1CC[C@H]2C(C)(C)C3CC12CCC3(C)OC(C)=O,water,298,-5.426641039,mol/L
Fc1ccccc1C(=O)c2cc(Cl)ccc2NC(=O)CBr,water,298,-5.576357757,mol/L
CCCCCCC(O)CCCCCCCCCCC(O)=O,water,298,-5.488370089,mol/L
[Zn++].CCCCCCC(O)CCCCCCCCCCC([O-])=O.CCCCCCC(O)CCCCCCCCCCC([O-])=O,water,298,-5.835618668,mol/L
Fc1ccccc1C(=O)c2cc(Cl)ccc2NC(=O)CBr,water,298,-5.584383961,mol/L
O=C1n2c3ccccc3nc2c4ccc5c6nc7ccccc7n6C(=O)c8ccc1c4c58,water,298,-5.633055848,mol/L
[Ba++].Cc1ccc(N\N=C\2C(=O)C(=Cc3ccccc23)C([O-])=O)c(c1)[S]([O-])(=O)=O,water,298,-5.735147106,mol/L
CC(C)(c1ccc(OC#N)cc1)c2ccc(OC#N)cc2,water,298,-5.469558378,mol/L
CCCCCCCCCCCCCCCc1cccc(O)c1.CCCCCCC\C=C/CCCCCCc2cccc(O)c2.CCCC/C=C\C\C=C/CCCCCCc3cccc(O)c3.Oc4cccc(CCCCCC\C=C/C/C=C\CCC=C)c4,water,298,-6.109599074,mol/L
CCCCCCCCCCCC#N,water,298,-5.289969947,mol/L
Cc1cc(Cc2cc(C)cc(c2O)C(C)(C)C)c(O)c(c1)C(C)(C)C,water,298,-5.568338217,mol/L
[nH]1c2ccccc2c3ccccc13,water,298,-5.264223452,mol/L
[F-].[F-].[F-].[Nd+3],water,298,-5.348494822,mol/L
C1CCC2CCCCC2C1,water,298,-5.191141332,mol/L
C1CCC2CCCCC2C1,water,298,-5.191775944,mol/L
[Ca++].CCCCCCC(O)CCCCCCCCCCC([O-])=O.CCCCCCC(O)CCCCCCCCCCC([O-])=O,water,298,-5.861037216,mol/L
Clc1ccc(cc1)[S](=O)(=O)c2ccc(Cl)cc2,water,298,-5.52363608,mol/L
[O--].[O--].[O--].[Sb+3].[Sb+3],water,298,-5.531176598,mol/L
[Ca++].CCCCCCC(O)CCCCCCCCCCC([O-])=O.CCCCCCC(O)CCCCCCCCCCC([O-])=O,water,298,-5.891176731,mol/L
[O--].[O--].[O--].[Sb+3].[Sb+3],water,298,-5.555107857,mol/L
CC(C)CCC(C)Nc1ccc(NC(C)CCC(C)C)cc1,water,298,-5.575133655,mol/L
CC(C)CCCCCCCOP(OCCCCCCCC(C)C)Oc1ccccc1,water,298,-5.738468786,mol/L
CC(CO)C1CCCCCCCCCCC1,water,298,-5.451794109,mol/L
CCCCC[C@H](CCC)CCCO,water,298,-5.367213774,mol/L
[Cd]=[Te],water,298,-5.477142969,mol/L
Clc1c(Cl)c(Cl)c2C(=O)OC(=O)c2c1Cl,water,298,-5.553119611,mol/L
COC(=O)CCCCCCCCC=C,water,298,-5.397515352,mol/L
[Al+3].[Al+3].[O-]C(=O)c1c(Cl)c(Cl)c(Cl)c(Cl)c1C2=C3C=C(Br)C(=O)C(=C3Oc4c(Br)c([O-])c(Br)cc24)Br.[O-]C(=O)c5c(Cl)c(Cl)c(Cl)c(Cl)c5C6=C7C=C(Br)C(=O)C(=C7Oc8c(Br)c([O-])c(Br)cc68)Br.[O-]C(=O)c9c(Cl)c(Cl)c(Cl)c(Cl)c9C%10=C%11C=C(Br)C(=O)C(=C%11Oc%12c(Br)c([O-])c(Br)cc%10%12)Br,water,298,-6.490069011,mol/L
[O--].[O--].[O--].[Bi+3].[Bi+3],water,298,-5.777924822,mol/L
C[C@]12CC[C@H]3[C@@H](CCc4cc(O)ccc34)[C@@H]1CCC2=O,water,298,-5.551148121,mol/L
Cc1cc(c(O)c(c1)C(C)(C)C)C(C)(C)C,water,298,-5.462311288,mol/L
FC(F)(F)C(F)(F)C(F)(F)C(F)(F)C(F)(F)C(F)(F)CCOC(=O)C=C.FC(F)(F)C(F)(F)C(F)(F)C(F)(F)C(F)(F)C(F)(F)C(F)(F)C(F)(F)CCOC(=O)C=C.FC(F)(F)C(F)(F)C(F)(F)C(F)(F)C(F)(F)C(F)(F)C(F)(F)C(F)(F)C(F)(F)C(F)(F)CCOC(=O)C=C.FC(F)(F)C(F)(F)C(F)(F)C(F)(F)C(F)(F)C(F)(F)C(F)(F)C(F)(F)C(F)(F)C(F)(F)C(F)(F)C(F)(F)CCOC(=O)C=C,water,298,-6.481477027,mol/L
CCC(C)c1cc(C(C)CC)c(O)c(c1)C(C)CC,water,298,-5.549793345,mol/L
Cc1cc(Cc2cc(C)cc(C3CCCCC3)c2O)c(O)c(c1)C4CCCCC4,water,298,-5.736598993,mol/L
N(c1ccccc1)c2ccc3ccccc3c2,water,298,-5.495914846,mol/L
[Gd+3].[Gd+3].[O-]C(=O)C([O-])=O.[O-]C(=O)C([O-])=O.[O-]C(=O)C([O-])=O,water,298,-5.917245861,mol/L
O=[Y],water,298,-5.175698148,mol/L
[O--].[O--].[O--].[Y+3].[Y+3],water,298,-5.508643208,mol/L
CC(CCCC(C)C=O)CCC=C(C)C,water,298,-5.496890424,mol/L
CC(C)CCC(C)Nc1ccc(Nc2ccccc2)cc1,water,298,-5.624837561,mol/L
O=C1CCCCCCCCCC\C=C/CCC1,water,298,-5.560732278,mol/L
COC1=CCC2=C(CCC3C2CCC4(C)C3CCC4(O)C#N)C1,water,298,-5.683242448,mol/L
CC1(C)CCCC2(C)C1CCC34COC(C)(CCC23)O4,water,298,-5.645384837,mol/L
CC1CCC(CC1)C(C)C,water,298,-5.354573108,mol/L
[Ba++].Cc1cc(N\N=C\2C(=O)C=Cc3ccccc23)c(cc1Cl)[S]([O-])(=O)=O.Cc4cc(N\N=C\5C(=O)C=Cc6ccccc56)c(cc4Cl)[S]([O-])(=O)=O,water,298,-6.156487599,mol/L
C,water,298,-4.422812959,mol/L
CC(C)c1ccc(cc1)c2ccccc2,water,298,-5.514753562,mol/L
CCCCCC(C)OC(=O)COc1ccc(Cl)c2cccnc12,water,298,-5.747969532,mol/L
Cc1cc(c(O)c(c1)C(C)(C)C)C(C)(C)C,water,298,-5.56497363,mol/L
CCCCCCCCCCCCCCCCCCN(CCO)CCO,water,298,-5.775274192,mol/L
[Gd+3].[Gd+3].[O-]C(=O)C([O-])=O.[O-]C(=O)C([O-])=O.[O-]C(=O)C([O-])=O,water,298,-5.98419265,mol/L
CCCCC(CC)CO[P](=O)(OCC(CC)CCCC)OCC(CC)CCCC,water,298,-5.85998044,mol/L
CCCCCCCCCCCCCCCCCC(O)=O,water,298,-5.678083515,mol/L
O=C1CCCCCCC\C=C/CCCCCCO1,water,298,-5.629397555,mol/L
CCCCCC(C)OC(=O)COc1ccc(Cl)c2cccnc12,water,298,-5.755268771,mol/L
CC1CC(C)(C)CC(C1)(OOC(C)(C)C)OOC(C)(C)C,water,298,-5.724785913,mol/L
COC(=O)c1ccc(NC(=O)c2cc(Cl)ccc2Cl)cc1N,water,298,-5.790064986,mol/L
CCCCCC(C)OC(=O)COc1ccc(Cl)c2cccnc12,water,298,-5.793727023,mol/L
CCCCCCCC(=O)SCCC[Si](OCC)(OCC)OCC,water,298,-5.832680461,mol/L
O=C(OCCc1ccccc1)/C=C/c2ccccc2,water,298,-5.683437939,mol/L
Oc1c(cccc1c2ccccc2)c3ccccc3,water,298,-5.683910105,mol/L
CC1(C)CC\C(=C/c2ccc(Cl)cc2)C1=O,water,298,-5.671591194,mol/L
CC(C)(C)c1cc(ccc1O)C(C)(CC(=O)OCCOC(=O)CC(C)(c2ccc(O)c(c2)C(C)(C)C)c3ccc(O)c(c3)C(C)(C)C)c4ccc(O)c(c4)C(C)(C)C,water,298,-6.201435362,mol/L
[O--].[O--].[O--].[Gd+3].[Gd+3],water,298,-5.860334412,mol/L
[F-].[F-].[F-].[Nd+3],water,298,-5.617959621,mol/L
CC(C)c1ccc(cc1)c2ccccc2,water,298,-5.609857774,mol/L
[Ca++].CCCCCCC(O)CCCCCCCCCCC([O-])=O.CCCCCCC(O)CCCCCCCCCCC([O-])=O,water,298,-6.124278651,mol/L
C1CCC(CC1)NSc2sc3ccccc3n2,water,298,-5.741051421,mol/L
CCCCCC(C)OC(=O)COc1ccc(Cl)c2cccnc12,water,298,-5.854022925,mol/L
CCc1cc(Cc2cc(CC)c(N)c(CC)c2)cc(CC)c1N,water,298,-5.848587947,mol/L
C,water,298,-4.571817128,mol/L
CC(C)(OOC(C)(C)c1ccccc1)c2ccccc2,water,298,-5.798493258,mol/L
CC(C)(c1ccc(OCCOC(=O)C=C)cc1)c2ccc(OCCOC(=O)C=C)cc2,water,298,-5.999481603,mol/L
[Ca++].CCCCCCC(O)CCCCCCCCCCC([O-])=O.CCCCCCC(O)CCCCCCCCCCC([O-])=O,water,298,-6.187471791,mol/L
CC(c1ccccc1)c2ccc(Nc3ccc(cc3)C(C)c4ccccc4)cc2,water,298,-5.964168762,mol/L
CCCCCCCCCCCCCCCCCCCCCCCCCCCCCCCCCCCCCCCCCCCCCCCCCCCCCCCCCCCCCCCCCCCCCCCCCC.CCCCCCCCCCCCCCCCCCCCCCCCCCCCCCCCCCCCC(CCCC)(CCCC)CCCCCCCCCCCCCCCC(CCCC)(CCCC)CCCCC.CCCc1cc(C)cc(C)c1.c2ccc(cc2)c3ccccc3.c4ccc5cc6ccccc6cc5c4,water,298,-6.806302611,mol/L
CCCCCCCCCCCCCCCCCCCCCCCCCCCCCC.CCCCCCCCCCCC(CC)CCCCCCC(CC)CCCCCCC.CCC1CCC(CC)CC1.Cc2cccc(C)c2.C3CCC4CC5CCCCC5CC4C3.c6ccc7ccccc7c6.c8ccc9cc%10ccccc%10cc9c8,water,298,-6.599567603,mol/L
Cc1cc(c(O)c(c1)C(C)(C)C)C(C)(C)C,water,298,-5.741064889,mol/L
CCCCCCCCCCCCCCCCCCCCCCC.CCCCCCCCCCCC(CCC)(CCC)CCCCCCCC.CCc1ccc2cc3cc(CC)ccc3cc2c1,water,298,-6.364408865,mol/L
CCCCC(CC)COC(=O)c1ccccc1,water,298,-5.767784581,mol/L
CC1CC(CC(C)(C)C1)OC(=O)c2ccccc2O,water,298,-5.816819422,mol/L
CCCCCCCCCCCCCCCCCCCC.CCCCCCCC(CC)CCCC(CC)CCCC.c1ccc2cc3ccccc3cc2c1,water,298,-6.269131018,mol/L
CCCCCCCCCCCCCC.CCc1ccccc1.c2ccccc2.c3ccc4ccccc4c3.c5ccc6cc7ccccc7cc6c5,water,298,-6.236212175,mol/L
COC(=O)c1ccc(cc1[N+]([O-])=O)C(=O)Nc2cc(Cl)ccc2Cl,water,298,-5.965154646,mol/L
c1ccc2ccccc2c1,water,298,-5.505739947,mol/L
C\C=C(/C)C(=O)OCCC(C)CCC=C(C)C,water,298,-5.791792689,mol/L
CC(=C)C(=O)OCCC(F)(F)C(F)(F)C(F)(F)C(F)(F)C(F)(F)C(F)(F)F,water,298,-6.058168846,mol/L
CC(C)c1ccc(O[P](=O)(Oc2ccc(cc2)C(C)C)Oc3ccc(cc3)C(C)C)cc1,water,298,-6.090982271,mol/L
O=C1C=CC(=O)N1c2ccc(Cc3ccc(cc3)N4C(=O)C=CC4=O)cc2,water,298,-5.998008544,mol/L
O=C(OOC(=O)c1ccccc1)c2ccccc2,water,298,-5.840159885,mol/L
CCCCCCCCCCCCCCO,water,298,-5.787142557,mol/L
CCCCC(CC)COC(=O)c1ccccc1C(=O)OCC(CC)CCCC,water,298,-6.060213293,mol/L
CC(C)c1ccc(O[P](=O)(Oc2ccc(cc2)C(C)C)Oc3ccc(cc3)C(C)C)cc1,water,298,-6.137134395,mol/L
CCCCCCCC[Sn](Cl)(Cl)Cl,water,298,-6.010780355,mol/L
C1CCC(CC1)NSc2sc3ccccc3n2,water,298,-5.91714268,mol/L
[Cu],water,298,-5.29793824,mol/L
CCCCCCCCCCCCCCO,water,298,-5.839848908,mol/L
CCCCCCCCCCCCCCCc1cccc(O)c1.CCCCCCC\C=C/CCCCCCc2cccc(O)c2.CCCC/C=C\C\C=C/CCCCCCc3cccc(O)c3.Oc4cccc(CCCCCC\C=C/C/C=C\CCC=C)c4,water,298,-6.597038826,mol/L
CCOc1ccccc1NC(=O)C(=O)Nc2ccccc2CC,water,298,-6.017546673,mol/L
[CaH2].O=[Zr],water,298,-5.696988001,mol/L
O=C1CCCCCCCCCCCCCCO1,water,298,-5.903789723,mol/L
Cc1ccc2oc(\C=C\c3oc4ccc(C)cc4n3)nc2c1,water,298,-6.000481949,mol/L
CC[Pb](CC)(CC)CC,water,298,-6.047406472,mol/L
CC(C)c1ccc(cc1)c2ccccc2,water,298,-5.845746781,mol/L
C\1C\C=C/CC\C=C/CC/C=C1,water,298,-5.763096263,mol/L
[Al+3].[O-]N(N=O)c1ccccc1.[O-]N(N=O)c2ccccc2.[O-]N(N=O)c3ccccc3,water,298,-6.194649109,mol/L
C[C@]12CCC(=O)C=C1CC[C@@H]3[C@@H]2CC[C@@]4(C)[C@H]3CC[C@@]4(O)C#C,water,298,-6.05230493,mol/L
O[S](O)(=O)=O.O=[Ti],water,298,-5.771616981,mol/L
Cc1ccc(O[P](=O)(Oc2ccc(C)cc2)Oc3ccc(C)cc3)cc1,water,298,-6.133313784,mol/L
[Cu],water,298,-5.371724454,mol/L
CCN(CC)c1ccc(cc1)N=Nc2ccccc2,water,298,-5.982115268,mol/L
[F-].[F-].[F-].[Nd+3],water,298,-5.893768237,mol/L
CCc1ccc2C(=O)c3ccccc3C(=O)c2c1,water,298,-5.984242497,mol/L
CCCCCCCCCCCCCCCCCC(O)=O,water,298,-6.073846604,mol/L
C1CCC(CC1)NSc2sc3ccccc3n2,water,298,-6.042081417,mol/L
CC(C)(CC(=C)c1ccccc1)c2ccccc2,water,298,-6.01184247,mol/L
CCCCc1nc(Cl)c(CO)n1Cc2ccc(cc2)c3ccccc3c4nnn(n4)C(c5ccccc5)(c6ccccc6)c7ccccc7,water,298,-6.461251172,mol/L
[O--].[O--].[O--].[Na+].[Na+].[Ti+4],water,298,-5.805457995,mol/L
CCCC[C@H](CC)COC(=O)/C=C/c1ccc(OC)cc1.CCCC[C@@H](CC)COC(=O)/C=C/c2ccc(OC)cc2,water,298,-6.421608413,mol/L
COC(=O)c1ccc(C(=O)OC)c(c1)N=NC(C(C)=O)C(=O)Nc2ccc3NC(=O)Nc3c2,water,298,-6.314069371,mol/L
CCCCCCCCCCC1CO1,water,298,-5.92315685,mol/L
CCCCCCCCCCCCC1CO1,water,298,-5.984684801,mol/L
C1COC2(C1)CC3CC2C4CCCC34,water,298,-5.94156112,mol/L
C[Si](C)(O[Si](C)(C)C=C)C=C,water,298,-5.954482552,mol/L
CC(C)C(c1cc(C)cc(C)c1O)c2cc(C)cc(C)c2O,water,298,-6.16734062,mol/L
[CaH2].O=[Zr],water,298,-5.87307926,mol/L
COC(=O)c1cc(cc(c1)C(=O)OC)N=NC(C(C)=O)C(=O)Nc2ccc3NC(=O)Nc3c2,water,298,-6.377738451,mol/L
COc1ccc(cc1O)C2=CC(=O)c3c(O)cc(O)cc3O2,water,298,-6.198752558,mol/L
OC(=O)CCCCCNc1nc(NCCCCCC(O)=O)nc(NCCCCCC(O)=O)n1,water,298,-6.392006976,mol/L
OCCN(CCO)CCO.OCCN(CCO)CCO.OCCN(CCO)CCO.OC(=O)CCCCCNc1nc(NCCCCCC(O)=O)nc(NCCCCCC(O)=O)n1,water,298,-6.683201134,mol/L
FC(F)(F)C(F)(F)C(F)(F)C(F)(F)C(F)(F)C(F)(F)CCOC(=O)C=C,water,298,-6.354159334,mol/L
CC(C)CCCCCCCOP(OCCCCCCCC(C)C)Oc1ccccc1,water,298,-6.382029914,mol/L
[Zr+4].[Zr+4].[Zr+4].[O-][P]([O-])([O-])=O.[O-][P]([O-])([O-])=O.[O-][P]([O-])([O-])=O.[O-][P]([O-])([O-])=O,water,298,-6.560007643,mol/L
O[S](O)(=O)=O.O=[Ti],water,298,-5.961394278,mol/L
Cc1ccc(O)c(c1)n2nc3ccccc3n2,water,298,-6.114620625,mol/L
O=C1c2ccccc2C(=O)c3ccccc13,water,298,-6.088065178,mol/L
Cc1ccc2C(=O)c3ccccc3C(=O)c2c1,water,298,-6.117146249,mol/L
O=C1C(c2ccc3ccccc3n2)C(=O)c4ccccc14,water,298,-6.208738625,mol/L
Oc1ccc(O)c2C(=O)c3ccccc3C(=O)c12,water,298,-6.160490227,mol/L
Oc1ccc(O)c2C(=O)c3ccccc3C(=O)c12,water,298,-6.176478332,mol/L
O[S](O)(=O)=O.O=[Ti],water,298,-6.00797042,mol/L
CCCCC(CC)COC(=O)c1ccccc1C(=O)OCC(CC)CCCC,water,298,-6.397177868,mol/L
Oc1ccc(O)c2C(=O)c3ccccc3C(=O)c12,water,298,-6.190266617,mol/L
N(c1ccccc1)c2ccc(Nc3ccccc3)cc2,water,298,-6.239449642,mol/L
COC(=O)c1ccc2cc(ccc2c1)C(=O)OC,water,298,-6.211736201,mol/L
[Ca++].CCCCCCC(O)CCCCCCCCCCC([O-])=O.CCCCCCC(O)CCCCCCCCCCC([O-])=O,water,298,-6.629428629,mol/L
CC(C)(c1cc(Br)c(O)c(Br)c1)c2cc(Br)c(O)c(Br)c2,water,298,-6.565237381,mol/L
CC(C)c1ccc2ccccc2c1C(C)C,water,298,-6.16866114,mol/L
[Al+3].[Al+3].[O-]C(=O)c1ccccc1C2=C3C=C(Br)C(=O)C(=C3Oc4c(Br)c([O-])c(Br)cc24)Br.[O-]C(=O)c5ccccc5C6=C7C=C(Br)C(=O)C(=C7Oc8c(Br)c([O-])c(Br)cc68)Br.[O-]C(=O)c9ccccc9C%10=C%11C=C(Br)C(=O)C(=C%11Oc%12c(Br)c([O-])c(Br)cc%10%12)Br,water,298,-7.143562702,mol/L
Oc1ccc(O)c2C(=O)c3ccccc3C(=O)c12,water,298,-6.253493517,mol/L
[O--].[O--].[Mg++].[Ca++],water,298,-5.863417497,mol/L
[Cu],water,298,-5.689144866,mol/L
CCCCC(CC)CO[P](=O)(OCC(CC)CCCC)OCC(CC)CCCC,water,298,-6.524188338,mol/L
CC(C)c1ccc2ccccc2c1C(C)C,water,298,-6.230113619,mol/L
CCCCCCCCCCCCCCCCN(C)C,water,298,-6.333676151,mol/L
CC(C)(c1cc(Br)c(O)c(Br)c1)c2cc(Br)c(O)c(Br)c2,water,298,-6.642077411,mol/L
[Cu+].[S-]C#N,water,298,-6.005863031,mol/L
CCCCCCCC[Sn](=O)CCCCCCCC,water,298,-6.478515993,mol/L
CCCCCCCCCCCCCCCCO,water,298,-6.305435569,mol/L
Oc1ccc(O)c2C(=O)c3ccccc3C(=O)c12,water,298,-6.319900475,mol/L
COc1ccc(cc1)N2CCN(CC2)c3ccc(cc3)N4C=NNC4=O,water,298,-6.488909265,mol/L
Clc1ccc(NC(=O)Nc2ccc(Cl)c(Cl)c2)cc1,water,298,-6.45772642,mol/L
CNc1cccc2C(=O)c3ccccc3C(=O)c12,water,298,-6.33382818,mol/L
CC1CC(C)(C)CC(C1)(OOC(C)(C)C)OOC(C)(C)C,water,298,-6.480660768,mol/L
[O--].[O--].[O--].[Gd+3].[Gd+3],water,298,-6.559304417,mol/L
Oc1ccc(O)c2C(=O)c3ccccc3C(=O)c12,water,298,-6.397874927,mol/L
Oc1ccc(O)c2C(=O)c3ccccc3C(=O)c12,water,298,-6.398327082,mol/L
C\C1=C/CCC(=C)[C@H]2CC(C)(C)[C@@H]2CC1,water,298,-6.337261665,mol/L
c1ccc(cc1)P(c2ccccc2)c3ccccc3,water,298,-6.464542535,mol/L
C\C1=C/CCC(=C)[C@H]2CC(C)(C)[C@@H]2CC1,water,298,-6.365906846,mol/L
CCC(C)(C)OOC1(CCCCC1)OOC(C)(C)CC,water,298,-6.515554746,mol/L
CC(C)(c1ccccc1)C(C)(C)c2ccccc2,water,298,-6.474168897,mol/L
C1CC=CC(C1)c2ccc(cc2)C3CCC=CC3,water,298,-6.474168897,mol/L
C(Oc1ccc2ccccc2c1)c3ccccc3,water,298,-6.477673979,mol/L
CN1C(=O)C=C2c3ccccc3C(=O)c4c(Br)ccc1c24,water,298,-6.680445321,mol/L
Oc1cc2ccccc2cc1C(=O)Nc3cccc(c3)[N+]([O-])=O,water,298,-6.643865624,mol/L
C[Si]1(C)O[Si](C)(C)O[Si](C)(C)O[Si](C)(C)O1,water,298,-6.627102391,mol/L
[O--].[O--].[O--].[La+3].[La+3],water,298,-6.670353837,mol/L
[O-][N+](=O)c1cc(OC(=O)Oc2cc(c(Cl)cc2Cl)[N+]([O-])=O)c(Cl)cc1Cl,water,298,-6.812907461,mol/L
CC(C)(C)c1cc(c(O)c(c1)C(C)(C)C)C(C)(C)C,water,298,-6.619684515,mol/L
C1CC=CC(C1)c2ccc(cc2)C3CCC=CC3,water,298,-6.591929049,mol/L
CCCCOC(=O)c1ccc(cc1)C(=O)OCCCC,water,298,-6.666436855,mol/L
CCCCCCCC\C=C/CCCCCCCCO.O[P](O)(O)=O,water,298,-6.785897843,mol/L
CC(C)(C)c1ccc(O)cc1.C=O,water,298,-6.493940207,mol/L
C[Si]1(C)O[Si](C)(C)O[Si](C)(C)O[Si](C)(C)O1,water,298,-6.722464115,mol/L
[Hg],water,298,-6.554121251,mol/L
Cc1ccc(N\N=C2/C(=O)C=Cc3ccccc23)c(C)c1,water,298,-6.705444298,mol/L
CCCCCCCCCCCCCC(=O)OC,water,298,-6.649738161,mol/L
CN(C)c1ccc(cc1)C(O)(c2ccc(cc2)N(C)C)c3ccc(Nc4ccccc4)c5ccccc35,water,298,-6.989135552,mol/L
CCC(C)c1cc(C(C)CC)c(O)c(c1)C(C)CC,water,298,-6.72005506,mol/L
O=C(Nc1ccccc1SSc2ccccc2NC(=O)c3ccccc3)c4ccccc4,water,298,-6.978287061,mol/L
Clc1c(Cl)c(Cl)c2C(=O)OC(=O)c2c1Cl,water,298,-6.776781702,mol/L
CCCCCCCCCCCC(=O)N(CCCC)CCCC,water,298,-7.016412077,mol/L
COc1ccc(cc1OC(C)=O)[N+]([O-])=O,water,298,-2.946604067,mol/L
[Cu].C[S](O)(=O)=O,water,298,0.732330182,mol/L
Cc1ccc(cc1)C(=O)OOC(=O)c2ccc(C)cc2,water,298,-6.798351882,mol/L
CC(=C)C(=O)OCCC(F)(F)C(F)(F)C(F)(F)C(F)(F)C(F)(F)C(F)(F)F,water,298,-7.012411355,mol/L
Cc1cc(Cc2cc(C)cc(C3CCCCC3)c2O)c(O)c(c1)C4CCCCC4,water,298,-6.979034273,mol/L
CCCC[C@H](CC)COC(=O)/C=C/c1ccc(OC)cc1.CCCC[C@@H](CC)COC(=O)/C=C/c2ccc(OC)cc2,water,298,-7.151247238,mol/L
CCCCC(CC)COC(=O)c1ccccc1C(=O)OCC(CC)CCCC,water,298,-6.978908353,mol/L
CC(C)c1ccccc1C(C)C,water,298,-6.602799271,mol/L
CC(C)c1cccc(c1)C(C)C,water,298,-6.602799271,mol/L
CCCCCCCCCCCCCCCC(O)C(CO)NC(=O)CCCCCCC\C=C/CCCCCCCC,water,298,-6.451761881,mol/L
CC(C)(C)OOC(C)(C)c1ccc(cc1)C(C)(C)OOC(C)(C)C,water,298,-6.927483286,mol/L
CCCCCCCCCCCCCCCC(O)=O,water,298,-6.806908841,mol/L
Cc1cc(Cc2cc(C)cc(C3CCCCC3)c2O)c(O)c(c1)C4CCCCC4,water,298,-7.007344185,mol/L
CC(=O)OC1=CCC2C3CCC(C3)C12,water,298,-3.009726571,mol/L
CC(=O)OC1=CCC2C3CCC(C3)C12,water,298,-3.014371476,mol/L
Cc1cc(Cc2cc(C)cc(C3CCCCC3)c2O)c(O)c(c1)C4CCCCC4,water,298,-7.062452572,mol/L
C[Si]1(C)O[Si](C)(C)O[Si](C)(C)O[Si](C)(C)O1,water,298,-6.953686491,mol/L
CCCCCCCC(=O)OCCCOC(=O)CCCCCCC,water,298,-7.516526119,mol/L
CC1(C)CCCC(C1)C(=O)CCC=C,water,298,-4.77931051,mol/L
CCn1c2ccccc2c3ccccc13,water,298,-6.813503151,mol/L
CCN(CCOC(C)OCC(C)C)c1ccc(cc1)N=Nc2ccccc2,water,298,-7.090503766,mol/L
[Zr+4].[Zr+4].[Zr+4].[O-][P]([O-])([O-])=O.[O-][P]([O-])([O-])=O.[O-][P]([O-])([O-])=O.[O-][P]([O-])([O-])=O,water,298,-7.338158893,mol/L
C(Sc1nnc(c2ccccc2)c(n1)c3ccccc3)\C=C\CSc4nnc(c5ccccc5)c(n4)c6ccccc6,water,298,-7.025125555,mol/L
COc1ccc(cc1)C(=O)CC(=O)c2ccc(cc2)C(C)(C)C,water,298,-7.060548154,mol/L
CCCCCCCCCCCCCCCCO,water,298,-7.004405573,mol/L
Cc1cc(Cc2cc(C)cc(C3CCCCC3)c2O)c(O)c(c1)C4CCCCC4,water,298,-7.275868155,mol/L
C[Si](O[Si](C)(C)C)O[Si](C)(C)C,water,298,-7.044345696,mol/L
CCCCN(CCCC)c1ccc2c(Oc3cc(C)c(Nc4ccccc4)cc3C25OC(=O)c6ccccc56)c1,water,298,-7.425439657,mol/L
CN1C(=O)c2ccc3c4ccc5C(=O)N(C)C(=O)c6ccc(c7ccc(C1=O)c2c37)c4c56,water,298,-7.320569984,mol/L
O=C1CCCCCCCCCCCCCCO1,water,298,-7.079880982,mol/L
S=[P](Oc1ccccc1)(Oc2ccccc2)Oc3ccccc3,water,298,-7.233447948,mol/L
COc1ccc(cc1O)C2=CC(=O)c3c(O)cc(O[C@@H]4O[C@H](CO[C@@H]5O[C@@H](C)[C@H](O)[C@@H](O)[C@H]5O)[C@@H](O)[C@H](O)[C@H]4O)cc3O2,water,298,-7.505541952,mol/L
O=C1N(C[C@@H]2CO2)C(=O)N(C[C@@H]3CO3)C(=O)N1C[C@@H]4CO4,water,298,-2.468825327,mol/L
COCCCN1C(=O)c2c(N)c3C(=O)c4ccccc4C(=O)c3c(N)c2C1=O,water,298,-7.323792769,mol/L
CCC(C)CCCOC(=O)CCc1cc(n2nc3ccccc3n2)c(O)c(c1)C(C)(C)C,water,298,-7.385788929,mol/L
CCCCC(CC)COC(=O)c1ccccc1C(=O)OCC(CC)CCCC,water,298,-7.361243289,mol/L
CCCCCCCCCCCCCCCCCCCCCC(O)=O,water,298,-7.32811446,mol/L
O=C(OCCCc1ccccc1)c2ccccc2,water,298,-4.800973789,mol/L
CCCCCC(C)CO,water,298,-2.528127071,mol/L
CCCCCCCCCCCCCCCCO,water,298,-7.270673462,mol/L
CC(O)C(C)(C)\C=C\C1CC=C(C)C1(C)C,water,298,-7.236490392,mol/L
[Pd++].CC(=O)[CH-]C(C)=O.CC(=O)[CH-]C(C)=O,water,298,-7.438461097,mol/L
O=C1NC(=O)c2ccc3c4ccc5C(=O)NC(=O)c6ccc(c7ccc1c2c37)c4c56,water,298,-7.591458634,mol/L
Cc1ccc(Nc2ccc(O)c3C(=O)c4ccccc4C(=O)c23)cc1,water,298,-7.549181312,mol/L
[O--].[Zr+4].[O-][S]([O-])(=O)=O,water,298,-7.706047479,mol/L
Cc1cc(Cc2cc(C)cc(c2O)C(C)(C)C)c(O)c(c1)C(C)(C)C,water,298,-7.687028004,mol/L
CCC1(C\C=C2/CCCc3cc(OC)ccc23)C(=O)CCC1=O,water,298,-4.172504242,mol/L
CCCCCCCCCCCCCCCCCC,water,298,-7.627539949,mol/L
CC(C)C1OC2(CCCC2)OCC1(C)C,water,298,-3.524243771,mol/L
CCCCCCCCCCCCCCCCCC(=O)OC1CC(C)(C)NC(C)(C)C1.CCCCCCCCCCCCCCCC(=O)OC2CC(C)(C)NC(C)(C)C2,water,298,-8.214524895,mol/L
CCCCC(CC)COC(=O)c1ccc(Nc2nc(Nc3ccc(cc3)C(=O)OCC(CC)CCCC)nc(Nc4ccc(cc4)C(=O)OCC(CC)CCCC)n2)cc1,water,298,-8.216478376,mol/L
CCCCOC(=O)c1ccc(cc1)C(=O)OCCCC,water,298,-7.790411563,mol/L
CCN(CCOc1ccc(cc1)C2CCCCC2)c3ccc(C=C(C#N)C#N)c(C)c3,water,298,-8.014483786,mol/L