Solute,Solvent,Temperature_K,Solubility,Units
[NH4+].[Mn+3].[O-][P]([O-])(=O)O[P]([O-])([O-])=O,water,298,-5.392552751,mol/L
CCCCCCCCCCCCCCCCCCO,water,298,-5.432168875,mol/L
CCCCCCCCCCCCCCCCCCOC(=O)CCSCCC(=O)OCCCCCCCCCCCCCCCCCC,water,298,-5.83453578,mol/L
CCCCCCCCCCCC(=O)OC(C)C,water,298,-5.38453799,mol/L
CCCCCCCCCCCCCCCCCCCCCCCCO,water,298,-5.549815883,mol/L
CC(C)(C)c1cc(CN2C(=O)N(Cc3cc(c(O)c(c3)C(C)(C)C)C(C)(C)C)C(=O)N(Cc4cc(c(O)c(c4)C(C)(C)C)C(C)(C)C)C2=O)cc(c1O)C(C)(C)C,water,298,-5.894368685,mol/L
CCCCCCC\C=C\CC,water,298,-5.188357482,mol/L
CCCCCCCCCCCC(=O)OC=C,water,298,-5.354799685,mol/L
[Zn++].CCCCN(CCCC)C([S-])=S.CCCCN(CCCC)C([S-])=S,water,298,-5.675923082,mol/L
COC(OC)c1ccc(cc1)C(=O)OC.COC(=O)c2ccccc2.COC(=O)c3ccc(C)cc3.COC(=O)c4ccc(CO)cc4.COC(=O)c5ccc(COC(=O)c6ccc(C)cc6)cc5.COC(=O)c7ccc(COC(=O)c8ccc(cc8)C(=O)OC)cc7.COC(=O)c9ccc(C=O)cc9.COC(=O)c%10ccc(cc%10)C(O)=O.COC(=O)c%11ccc(cc%11)C(=O)OC.COC(=O)c%12ccc(cc%12)C(=O)OCc%13ccc(C)cc%13.COC(=O)c%14ccc(cc%14)c%15ccc(cc%15)C(=O)OC.COC(=O)c%16ccc(cc%16)c%17cccc(c%17)C(=O)OC.COC(=O)c%18ccc(cc%18)c%19ccccc%19C(=O)OC.COC(=O)c%20ccc(cc%20)c%21cc(C)ccc%21C(=O)OC.COC(=O)c%22ccc(cc%22)c%23cc(ccc%23C(=O)OC)C(=O)OC.COC(=O)c%24cccc(c%24)C(=O)OC.COC(=O)c%25ccc(C(=O)OC)c(c%25)C(=O)OC.COC(=O)c%26ccc%27c(c%26)C(=O)c%28ccc(cc%27%28)C(=O)OC.COC(=O)c%29ccc(C)c%30c%29OC(=O)c%31ccccc%30%31.COC(=O)c%32ccccc%32C(=O)OC.COC(=O)c%33ccc(C)cc%33C(=O)OC.Cc%34ccc(C)cc%34.Cc%35ccc(cc%35)C(O)=O.OC(=O)c%36ccccc%36,water,298,-6.731677773,mol/L
CCCCC(CC)C1CCON1CCOC(=O)NCCCCCCNC(=O)OCCN2OCCC2C(CC)CCCC,water,298,-5.790560824,mol/L
COC(=O)CCc1cc(n2nc3ccccc3n2)c(O)c(c1)C(C)(C)C,water,298,-6.849323576,mol/L
CCCCCCCCCCCCCCCCCCNC(=O)Nc1ccc(Cc2ccc(NC(=O)NCCCCCCCCCCCCCCCCCC)cc2)cc1,water,298,-5.942994641,mol/L
CC(C)CCC[C@@H](C)CCC[C@@H](C)CCC[C@]1(C)CCc2c(C)c(OC(C)=O)c(C)c(C)c2O1,water,298,-5.771545225,mol/L
ICC1CCC(CI)CC1,water,298,-5.748197572,mol/L
CC(C)(C)OOC(C)(C)c1ccc(cc1)C(C)(C)OOC(C)(C)C,water,298,-5.737151587,mol/L
[OH-].[O--].[Al+3],water,298,-5.025247952,mol/L
NC1=Nc2[nH]cc(CCc3ccc(cc3)C(O)=O)c2C(=O)N1,water,298,-5.762006464,mol/L
CCCCCCCCCCCCCCCCCCSSCCCCCCCCCCCCCCCCCC,water,298,-6.057758886,mol/L
CCCCCCCCCCCCC(CCCCCCCCCC)C(O)=O,water,298,-5.867639522,mol/L
CC1=CC[C@@H](CC1)C(C)(C)O,water,298,-5.489263615,mol/L
[Zr],water,298,-5.35804912,mol/L
C[Si](C)(C)O[Si](C)(O[Si](C)(C)C)O[Si](C)(C)C,water,298,-5.936026172,mol/L
CCOc1ccccc1NC(=O)C(=O)Nc2ccc(CCCCCCCCCC(C)C)cc2,water,298,-6.09944947,mol/L
N12[Si]34N5[Si]16N3[Si]25N46,water,298,-5.669893078,mol/L
CCCCC(CC)COC(=O)CC(C)CC(C)(C)C,water,298,-5.954976972,mol/L
[O--].[O--].[O--].[Ca++].[Ti+4],water,298,-5.6562324,mol/L
CCC(C)CCCOC(=O)CCc1cc(n2nc3ccccc3n2)c(O)c(c1)C(C)(C)C,water,298,-6.163940179,mol/L
CC[C@]12CC[C@H]3[C@@H](CCC4=C3CC=C(C4)OC)[C@@H]1CCC2=O,water,298,-6.04639688,mol/L
Cc1cc(c(OP2OCC3(CO2)COP(OC3)Oc4c(cc(C)cc4C(C)(C)C)C(C)(C)C)c(c1)C(C)(C)C)C(C)(C)C,water,298,-6.386264983,mol/L
[Ca++].[Ca++].[O-][P]([O-])(=O)O[P]([O-])([O-])=O,water,298,-5.998459357,mol/L
C[S](=O)(=O)Oc1ccc(Nc2ccc(O)c3C(=O)c4ccccc4C(=O)c23)cc1,water,298,-6.214227985,mol/L
[Ni++].CCCCN.CC(C)(C)CC(C)(C)c1ccc([O-])c(Sc2cc(ccc2[O-])C(C)(C)CC(C)(C)C)c1,water,298,-6.446040594,mol/L
CC1=CC(C)(C)Nc2ccccc12,water,298,-5.937665808,mol/L
CC(Cc1cccc(CC(C)c2ccc(O)cc2)c1)c3ccc(O)cc3,water,298,-6.23863564,mol/L
Cc1cccc(c1)N(c2ccccc2)c3ccc(cc3)c4ccc(cc4)N(c5ccccc5)c6cccc(C)c6,water,298,-6.41219838,mol/L
CN(C(=S)SSC(=S)N(C)c1ccccc1)c2ccccc2,water,298,-6.260769992,mol/L
CCN(CC)c1ccc(N=Nc2c(cc(cc2[N+]([O-])=O)[N+]([O-])=O)C#N)c(NC(C)=O)c1,water,298,-6.327772594,mol/L
CC(C)=C.Cc1ccc(O)cc1.C2C=CC3C4CC(C=C4)C23,water,298,-6.170927319,mol/L
CCCCCCCCCCCC(=O)OCCOCC(OCCO)C1OCC(OCCO)C1OCCO,water,298,-6.417202563,mol/L
CC(C)CCCCCCCCCCCCCCCO,water,298,-6.256077616,mol/L
CCCCCCCCCCCC(=O)OCC(COC(C)=O)OC(C)=O,water,298,-6.378367614,mol/L
CCCCCCCCCCCCCCCOC(=O)/C=C/C(=O)OCCCCCCCCCCCCCCC,water,298,-6.553787585,mol/L
CCCCCCCCOC(=O)\C=C\C(=O)OCCCCCCCC,water,298,-6.356030959,mol/L
O=C=Nc1ccc(O[P](=S)(Oc2ccc(cc2)N=C=O)Oc3ccc(cc3)N=C=O)cc1,water,298,-6.491719256,mol/L
CC(C)CCCCCCCOC(=O)\C=C\C(=O)OCCCCCCCC(C)C,water,298,-6.422274591,mol/L
CCCCCCCCCCCCOC(=O)\C=C\C(=O)OCCCCCCCCCCCC,water,298,-6.479738422,mol/L
CCCCCCCC\C=C/CCCCCCCC(=O)OC(C)C,water,298,-6.335189016,mol/L
CCCCCCCCCC(O)=O.CCCCCCCC(O)=O.CCCCCCC(O)=O.OCC(CO)(CO)CO,water,298,-6.61940343,mol/L
[N-]=[N+]=C1C=Cc2c(cccc2[S](=O)(=O)Oc3ccc(C(=O)c4ccccc4)c(O[S](=O)(=O)c5cccc6C(=O)C(C=Cc56)=[N+]=[N-])c3O[S](=O)(=O)c7cccc8C(=O)C(C=Cc78)=[N+]=[N-])C1=O,water,298,-6.820895007,mol/L
CCCCCCCC[Si](OCC)(OCC)OCC,water,298,-6.327740788,mol/L
CCCCOC(=O)c1ccc(cc1)C(=O)OCCCC,water,298,-6.365406859,mol/L
CCCCCCC(O)CCCCCCCCCCC(=O)NCCNC(=O)CCCCCCCCCCC(O)CCCCCC,water,298,-6.735207192,mol/L
O=C1OC(=Nc2ccccc12)c3ccc(cc3)C4=Nc5ccccc5C(=O)O4,water,298,-6.517040294,mol/L
CCCCCCCC\C=C/CCCCCCCCCCCC(N)=O,water,298,-6.528392147,mol/L
O=C=Nc1ccc(cc1)C(c2ccc(cc2)N=C=O)c3ccc(cc3)N=C=O,water,298,-6.565096595,mol/L
CC(C)CCCCCCOC(=O)c1ccccc1C(=O)OCCCCCCC(C)C,water,298,-6.621817899,mol/L
CCCCC(CC)COC(=O)CCCCC(=O)OCC(CC)CCCC,water,298,-6.568874945,mol/L
CC(C)CCCCCCCOC(=O)CCCCC(=O)OCCCCCCCC(C)C,water,298,-6.630104322,mol/L
CC(C)CCCCCCOC(=O)CCCCC(=O)OCCCCCCC(C)C,water,298,-6.600567801,mol/L
CCCCCCCCOCCCCCCCC,water,298,-6.384616815,mol/L
CCCCCCCCCCCCCCCCCCOC=C,water,298,-6.472081819,mol/L
CC(C)CCCCCCCCCCCCCCC(O)=O.OC[C@H](O)[C@@H](O)[C@H](O)C(O)O,water,298,-6.655742376,mol/L
CCCCC(CC)COC(=O)C(C#N)=C(c1ccccc1)c2ccccc2,water,298,-6.558090281,mol/L
CCCC1CCC(CC1)C2CCC(CC2)c3ccc(c(F)c3)c4cc(F)c(F)c(F)c4,water,298,-6.636031296,mol/L
CCCCCCCCCCC(CO)CCCCCCCC,water,298,-6.475024349,mol/L
O=C1OC(=O)c2cccc3cccc1c23,water,298,-6.29705325,mol/L
CC(C)(C)c1cc(CCC(=O)OCC(COC(=O)CCc2cc(c(O)c(c2)C(C)(C)C)C(C)(C)C)(COC(=O)CCc3cc(c(O)c(c3)C(C)(C)C)C(C)(C)C)COC(=O)CCc4cc(c(O)c(c4)C(C)(C)C)C(C)(C)C)cc(c1O)C(C)(C)C,water,298,-7.07101808,mol/L
CC(C)(C)CC(C)(C)c1ccc(Nc2ccc(cc2)C(C)(C)CC(C)(C)C)cc1,water,298,-6.595120185,mol/L
O=C1NC(=O)C(C(=O)N1)=C2NC(c3ccccc23)=C4C(=O)NC(=O)NC4=O,water,298,-6.564993732,mol/L
CCCCN(CCCC)c1ccc2c(Oc3cc(C)c(Nc4ccccc4)cc3C25OC(=O)c6ccccc56)c1,water,298,-6.726469652,mol/L
CCCCCCCCC=C,water,298,-6.146964797,mol/L
CCCCCCCCC(C)C(CC)CCCCCCC.CCCCCCCCC(C)C(CCC)CCCCCC,water,298,-6.75213453,mol/L
CCCCCCCCCCCCCCCCCC(=O)NCCNCCNC(=O)CCCCCCCCCCCCCCCCC.CCCCCCCCCCCCCCCCCC(=O)NCCN1CCN=C1CCCCCCCCCCCCCCCCC.CC(O)=O.CC(O)=O,water,298,-7.138082495,mol/L
CCCCCCCCCCCCCCCCCCCCCC(=O)NCCCN(C)C,water,298,-6.628141567,mol/L
CCCCCCCCCCCCCCCCCCOCC[O],water,298,-6.496301265,mol/L
Oc1ccc(C=C)cc1C=C,water,298,-6.164914695,mol/L
[Mg++].[Mg++].[Mg++].O[Si]([O-])=O.O[Si]([O-])=O.[O-][Si]([O-])=O.[O-][Si]([O-])=O,water,298,-6.578940476,mol/L
Cc1cc(C)c(c(C)c1)C(=O)[P](=O)(C(=O)c2c(C)cc(C)cc2C)c3ccccc3,water,298,-6.621667442,mol/L
[O--].[O--].[O--].[O--].[O--].[Al+3].[Al+3].[Ca++].[Ca++],water,298,-6.330647093,mol/L
CO[Si](OC)(C(C)C)C(C)C,water,298,-6.246331133,mol/L
CCCCCCCCCCCC(=O)OOC(=O)CCCCCCCCCCC,water,298,-6.600567801,mol/L
CCCCCCCCOC(=O)[C@@H](C)Oc1ccc(Cl)cc1C,water,298,-6.514367091,mol/L
[Ag+].[C-]#N,water,298,-6.126735167,mol/L
[Ti++].[H-].[H-],water,298,-5.697952564,mol/L
[Ti+4].[O-][Si]([O-])=O.[O-][Si]([O-])=O,water,298,-6.301101648,mol/L
CCCCC(CC)COC(=O)c1ccc(Nc2nc(Nc3ccc(cc3)C(=O)OCC(CC)CCCC)nc(Nc4ccc(cc4)C(=O)OCC(CC)CCCC)n2)cc1,water,298,-7.915448381,mol/L
CC(C)(C)c1ccc(OP(Oc2ccc(cc2C(C)(C)C)C(C)(C)C)Oc3ccc(cc3C(C)(C)C)C(C)(C)C)c(c1)C(C)(C)C,water,298,-6.856619481,mol/L
CCCCC(CC)COC(=O)c1ccc(Nc2nc(Nc3ccc(cc3)C(=O)OCC(CC)CCCC)nc(Nc4ccc(cc4)C(=O)OCC(CC)CCCC)n2)cc1,water,298,-8.070350341,mol/L
CCCCCCCCC(=O)OCC(CC)(COC(=O)CCCCCCCC)COC(=O)CCCCCCCC,water,298,-6.841087952,mol/L
CCC(C)(C)c1cc(O)c(cc1O)C(C)(C)CC,water,298,-6.495513117,mol/L
[O--].[O--].[O--].[O--].[O--].[Fe+3].[Fe+3].[Sr++].[Sr++],water,298,-6.661487316,mol/L
[H-].[H-].[Zr++],water,298,-6.066512278,mol/L
CC1(OCCO1)C2CCC3C4=CC=C5CC6(CCC5(C)C4CCC23C)OCCO6,water,298,-6.700119715,mol/L
CC(C)[C@H]1CC[C@H](C)C[C@@H]1OC(C)=O,water,298,-4.066886933,mol/L
C,water,298,-5.427134333,mol/L
[Zn++].[n-]1c2nc3[n-]c(nc4nc(nc5nc(nc1c6ccccc26)c7ccccc57)c8ccccc48)c9ccccc39,water,298,-6.983720983,mol/L
CC(=O)Nc1cc(ccc1N=Nc2ccc(cc2Cl)[N+]([O-])=O)N(CCOC(C)=O)CCOC(C)=O,water,298,-6.963714867,mol/L
CCCCCCCCCCCCCCCCCCNC(=O)CCCCCCCCCCCCCCCCC,water,298,-7.025002929,mol/L
CCCCCCCCCCCCCCCCCCNC(=O)CCCCCCCCCCC\C=C/CCCCCCCC,water,298,-7.071939419,mol/L
CCCCCCCCCCCCCCCCCC(=O)OCC(OC(=O)CCCCCCCCCCCCCCCCC)[C@H]1OC[C@@H](O)[C@@H]1OC(=O)CCCCCCCCCCCCCCCCC,water,298,-7.284910562,mol/L
CCCCCCCCCCCCCCCC(=O)OCC(O)[C@H]1OC[C@@H](O)[C@@H]1O,water,298,-6.905873561,mol/L
CCC=C.C\C=C\C,water,298,-5.050054784,mol/L
CC(C)CCCCCCCCCCOC(=O)c1ccc(C(=O)OCCCCCCCCCCC(C)C)c(c1)C(=O)OCCCCCCCCCCC(C)C,water,298,-7.18023716,mol/L
CCCCCCC(=O)OCC(COC(=O)CCCCCC)OC(=O)CCCCCC,water,298,-6.933092295,mol/L
CCCCCCC(O)CCCCCCCCCCC(=O)OCC(COC(=O)CCCCCCCCCCC(O)CCCCCC)OC(=O)CCCCCCCCCCC(O)CCCCCC,water,298,-7.273925856,mol/L
CCCCC(CC)C(=O)OCC(COC(=O)C(CC)CCCC)OC(=O)C(CC)CCCC,water,298,-6.97376589,mol/L
CCCCCCCC\C=C/CCCCCCCC(=O)OCC(COC(=O)CCCCCCC\C=C/CCCCCCCC)OC(=O)CCCCCCC\C=C/CCCCCCCC,water,298,-7.248195509,mol/L
CC(C)CCCCCOC(=O)CCCCC(=O)OCCCCCC(C)C,water,298,-6.869904941,mol/L
CCCCCCCCCCCCCCCCCCOCCCCCCCCCCCCCCCCCC,water,298,-7.019520889,mol/L
CCCCCCC(=O)OCC(CC)(COC(=O)CCCCCC)COC(=O)CCCCCC,water,298,-6.97376589,mol/L
CCCCCCCC\C=C/CCCCCCCC(=O)OCC(C)(C)COC(=O)CCCCCCC\C=C/CCCCCCCC,water,298,-7.102471439,mol/L
CCCCCCCC(=O)OCC(C)(C)COC(=O)CCCCCCC,water,298,-6.853146782,mol/L
S(Sc1sc2ccccc2n1)c3sc4ccccc4n3,water,298,-6.822821645,mol/L
CCCCCCCCCCCCCCCCCOC(=O)/C=C/C(=O)OCCCCCCCCCCCCCCCCC,water,298,-7.074077365,mol/L
Clc1ccc(NC(=O)CBr)c(c1)C(=O)c2ccccc2Cl,water,298,-6.888808288,mol/L
CCCCCCCCCCCCC1CO1,water,298,-6.628137477,mol/L
CCC(COC(=O)CCCCCCCCCCCCCCC(C)C)(COC(=O)CCCCCCCCCCCCCCC(C)C)COC(=O)CCCCCCCCCCCCCCC(C)C,water,298,-7.271182465,mol/L
CCCCCCCCCCCCCCCCCC(=O)OCCCCCCCC,water,298,-6.899492196,mol/L
CCCCCCCCCCCCCCC1CO1,water,298,-6.682020458,mol/L
CC(C)(C)c1cc(CCC(=O)NNC(=O)CCc2cc(c(O)c(c2)C(C)(C)C)C(C)(C)C)cc(c1O)C(C)(C)C,water,298,-7.04359803,mol/L
CCCCCCC(=O)OCC(COC(=O)CCCCCC)(COC(=O)CCCCCC)COC(=O)CCCCCC,water,298,-7.068063351,mol/L
CCCCCCCC\C=C/CCCCCCCC(=O)OCC(COC(=O)CCCCCCC\C=C/CCCCCCCC)(COC(=O)CCCCCCC\C=C/CCCCCCCC)COC(=O)CCCCCCC\C=C/CCCCCCCC,water,298,-7.378019409,mol/L
CC(C)CCCCCCCCCCCCCCC(=O)OCC(COC(=O)CCCCCCCCCCCCCCC(C)C)(COC(=O)CCCCCCCCCCCCCCC(C)C)COC(=O)CCCCCCCCCCCCCCC(C)C,water,298,-7.380942773,mol/L
CCCCCCC(O)=O.CC(C)(CO)CO,water,298,-6.670869008,mol/L
CCCCCCCC/C=C/CCCCCCCC(=O)OCC(CO)(CO)COC(=O)CCCCCCC\C=C\CCCCCCCC,water,298,-7.123886253,mol/L
CCCCCCCCCCCC(=O)OCCC(C)C,water,298,-6.733128222,mol/L
Clc1c(Cl)c(Cl)c2C(=O)C(c3ccc4cccc(N5C(=O)c6c(Cl)c(Cl)c(Cl)c(Cl)c6C5=O)c4n3)C(=O)c2c1Cl,water,298,-7.142369441,mol/L
CCCCCCCCCC(O)=O.CCCCCCCC(O)=O.CC(O)CO,water,298,-6.894954848,mol/L
CCCCCCCCCC(O)=O.CCCCCCCC(O)=O.OCC(CO)(CO)CO,water,298,-6.956772372,mol/L
CCCCC(=O)OCC(CO)(CO)COCC(CO)(CO)CO,water,298,-6.8304565,mol/L
CC(C)c1cccc(C(C)C)c1N=C=Nc2c(cccc2C(C)C)C(C)C,water,298,-6.860411082,mol/L
C1CCC(CC1)N(Sc2sc3ccccc3n2)C4CCCCC4,water,298,-6.840814696,mol/L
CCCCCCCCCCCCCCCCCCNC(=O)CCCCCCCCCCCCCCCCC,water,298,-7.030183442,mol/L
CCCCCCCCCCCCCCCCCC(=O)OCCCC.CCCCCCCCCCCCCCCC(=O)OCCCC,water,298,-7.116029628,mol/L
CCCCOC(=O)CCCCCCCCC(=O)OCCCC,water,298,-6.798603692,mol/L
CC(C)CCCCCCCOC(=O)CCCCCCCC(=O)OCCCCCCCC(C)C,water,298,-6.971983321,mol/L
CCCCCCCCCCCCCCOC(=O)\C=C\C(=O)OCCCCCCCCCCCCCC,water,298,-7.007600998,mol/L
CCCCCCCCCCCCCCCCCCCCCC(N)=O,water,298,-6.832007908,mol/L
CCCCCCCCCCCCCCCCCCCCCCOC(=O)CCCCCCCCCCCCCCCCCCCCC,water,298,-7.113399141,mol/L
CCCCCCCCCCCCOC(=O)CCCCCCC\C=C\CCCCCCCC,water,298,-6.955006196,mol/L
CCCCCCCCCCCCCCCC(=O)OCC.CCCCCCCCCCCCCC(=O)OCC.CCCCCCCC\C=C/CCCCCCCC(=O)OCC.CCCCCC\C=C/CCCCCCCC(=O)OCC,water,298,-7.355606283,mol/L
CCCCCCCCCCCCCCCCOC(=O)C(CC)CCCC,water,298,-6.867639522,mol/L
CCCCCCCCCCCC(=O)OCCCCCC,water,298,-6.755087841,mol/L
CC(C)CCCCCCCCCCCCCCC(=O)OC(CO)CO,water,298,-6.855595469,mol/L
[O--].[O--].[O--].[O--].[O--].[O--].[O--].[Mg++].[Mg++].[Nb+5].[Nb+5],water,298,-6.840626685,mol/L
CCCCCCCC\C=C/CCCCCCCCCCCC(=O)OCCCCCCCC\C=C/CCCCCCCC,water,298,-7.071179207,mol/L
CCCCCCCCC\C=C/CCCCCCC(=O)OCCCCCCCC\C=C/CCCCCCCC,water,298,-7.027706683,mol/L
CCCCCCCCOC(=O)CCCCCCC,water,298,-6.709998828,mol/L
CCCCCCCCCCCCCCOC(=O)CCCCCCC\C=C/CCCCCCCC,water,298,-6.98122586,mol/L
CCCCC(CC)COC(=O)CC(CC(=O)OCC(CC)CCCC)(OC(C)=O)C(=O)OCC(CC)CCCC,water,298,-7.057520047,mol/L
[Zr],water,298,-6.261139107,mol/L
CC(C)(c1ccccc1)c2cc(n3nc4ccccc4n3)c(O)c(c2)C(C)(C)c5ccccc5,water,298,-7.048812621,mol/L
CC(CC(c1cc(c(O)cc1C)C(C)(C)C)c2cc(c(O)cc2C)C(C)(C)C)c3cc(c(O)cc3C)C(C)(C)C,water,298,-7.134193051,mol/L
CCCCC(CC)CNC(=O)c1ccc(N\N=C2\C(=C(C#N)C(=O)N(C)C2=O)C)cc1,water,298,-7.024810856,mol/L
CN1C(=O)C(=N/Nc2ccc(Cl)c(Cl)c2)/C(=C(C#N)C1=O)C,water,298,-6.925783782,mol/L
CC(C)(C)c1cc(CN2C(=O)N(Cc3cc(c(O)c(c3)C(C)(C)C)C(C)(C)C)C(=O)N(Cc4cc(c(O)c(c4)C(C)(C)C)C(C)(C)C)C2=O)cc(c1O)C(C)(C)C,water,298,-7.292308693,mol/L
OC(COc1ccc(c(O)c1)C(=O)c2ccccc2)COc3ccc(c(O)c3)C(=O)c4ccccc4,water,298,-7.138754703,mol/L
CCCCCCCCCCCCCNCCCCCCCCCCCCC.CCCCCCCCCCCCCNCC(C)CCCCCCCCCC,water,298,-7.405668446,mol/L
CN(C\C=C\C#CC(C)(C)C)Cc1cccc2ccccc12,water,298,-4.464546178,mol/L
CCCCCCCCCC(C)(C)SSC(C)(C)CCCCCCCCC,water,298,-7.127966051,mol/L
CCCCC(CC)COC(=O)OCC(CC)CCCC,water,298,-6.979936669,mol/L
C,water,298,-5.728164329,mol/L
O=[P](OCc1ccccc1)(OCc2ccccc2)O[P](=O)(OCc3ccccc3)OCc4ccccc4,water,298,-7.254042677,mol/L
CC(C)(c1ccc(Oc2ccc(N)cc2)cc1)c3ccc(Oc4ccc(N)cc4)cc3,water,298,-7.19172722,mol/L
S=[Zn],water,298,-6.589139317,mol/L
CCCCCCCCCCCCCCCCCC(=O)O[Al](O)OC(=O)c1ccccc1,water,298,-7.253899898,mol/L
CCN(CC)c1ccc2C=C3C(=C(C#N)C(=O)n4c5ccccc5nc34)Oc2c1,water,298,-7.202332762,mol/L
CCN(CC)c1ccc(N=Nc2c(cc(C)cc2C#N)C#N)c(N[S](C)(=O)=O)c1,water,298,-7.233105094,mol/L
CCCCCCCCCCCCCCCCCC(=O)OC.CCCCCCCCCCCCCCCC(=O)OC.CCCCCCCC\C=C/CCCCCCCC(=O)OC.CCCCC/C=C\C\C=C/CCCCCCCC(=O)OC.CC/C=C/C/C=C/C/C=C/CCCCCCCC(=O)OC,water,298,-7.800359899,mol/L
CC(=O)OCCN(CCOC(C)=O)c1ccc(cc1)N=Nc2ccc(cc2C#N)[N+]([O-])=O,water,298,-7.300465046,mol/L
FC(F)(F)C(F)(F)C(F)(F)C(F)(F)C(F)(F)C(F)(F)C(F)(F)C(F)(F)Br,water,298,-7.397033995,mol/L
CCN(CCC#N)c1ccc(cc1)N=Nc2ccc(cc2)[N+]([O-])=O,water,298,-7.208650928,mol/L
Cc1cc(C)cc(c1)N2C(=O)c3ccc4c5ccc6C(=O)N(c7cc(C)cc(C)c7)C(=O)c8ccc(c9ccc(C2=O)c3c49)c5c68,water,298,-7.476148795,mol/L
[O--].[O--].[O--].[Bi+3].[Bi+3],water,298,-7.367315845,mol/L
[NH4+].[Fe++].[Fe+3].[C-]#N.[C-]#N.[C-]#N.[C-]#N.[C-]#N.[C-]#N,water,298,-7.155088449,mol/L
CCN(CCC(=O)OC)c1ccc(cc1)N=Nc2snc3ccc(cc23)[N+]([O-])=O,water,298,-7.315402454,mol/L
CCCCCCCCCCCCCCOC(=O)CCCCCCCCCCCCC,water,298,-7.327107482,mol/L
CCCC1CCC(CC1)c2ccc(cc2)c3ccc(CC)cc3,water,298,-7.185390564,mol/L
Cc1cc(C)cc(O[P](=O)(Oc2cc(C)cc(C)c2)Oc3cc(C)cc(C)c3)c1,water,298,-7.312230264,mol/L
CC1=C(\C=C\C(C)=C\C=C\C(C)=C\C=C\C=C(C)\C=C\C=C(C)\C=C\C2=C(C)CCCC2(C)C)C(C)(C)CCC1,water,298,-7.553792438,mol/L
[Hf],water,298,-7.172432644,mol/L
[O--].[O--].[Hf+4],water,298,-7.244046096,mol/L
CCCCCCCCCCCCCCCCCCNC(=O)CCCCCCCCCCC\C=C/CCCCCCCC,water,298,-7.770909423,mol/L
NC(Cc1ccccc1)=CC(=O)[C@@H](Cc2ccccc2)N(Cc3ccccc3)Cc4ccccc4,water,298,-7.663343734,mol/L
CCCCCCCCCCCCCCCC(=O)NCCCCCCCC\C=C/CCCCCCCC,water,298,-7.704078415,mol/L
Clc1ccc(NC(=O)Nc2ccc(Cl)c(Cl)c2)cc1,water,298,-7.499119105,mol/L
[H+].[Cl-].NC(N)=N.OC(=O)C1=NN(c2ccc(cc2)[S](O)(=O)=O)C(=O)C1N=Nc3ccc(cc3)[S](O)(=O)=O,water,298,-7.751246762,mol/L
CCCCCCCCCCCCCCCCCCNC(=O)CCc1cc(c(O)c(c1)C(C)(C)C)C(C)(C)C,water,298,-7.724189002,mol/L
CC(C)(C)c1cc(CCC(=O)NCCCCCCNC(=O)CCc2cc(c(O)c(c2)C(C)(C)C)C(C)(C)C)cc(c1O)C(C)(C)C,water,298,-7.804113524,mol/L
CCCCC(CC)C(=O)OCC(C)(C)COC(=O)C(CC)CCCC,water,298,-7.552116787,mol/L
Nc1ccc(Cl)cc1C(=O)c2ccccc2Cl,water,298,-7.425088938,mol/L
O=[P](Oc1ccccc1)(Oc2ccccc2)Oc3ccc(cc3)c4ccc(O[P](=O)(Oc5ccccc5)Oc6ccccc6)cc4,water,298,-7.813287357,mol/L
O=C1N(c2ccc(cc2)N=Nc3ccccc3)C(=O)c4ccc5c6ccc7C(=O)N(c8ccc(cc8)N=Nc9ccccc9)C(=O)c%10ccc(c%11ccc1c4c5%11)c6c7%10,water,298,-7.875509224,mol/L
CCOc1cc2N=C3C(=C4Oc5cc(NC(=O)c6ccccc6)c(OCC)cc5N=C4C(=C3Oc2cc1NC(=O)c7ccccc7)NC(C)=O)NC(C)=O,water,298,-7.86138265,mol/L
CCCCCCCCCCCCCCCCCCNC(=O)CCCCCCCCCCCCCCCCC,water,298,-7.729153446,mol/L
CC(C)=C.Cc1ccc(O)cc1.C2C=CC3C4CC(C=C4)C23,water,298,-7.471957315,mol/L
[Al+3].[O-]B([O-])[O-],water,298,-6.93344173,mol/L
CCCCCCOC(=O)c1ccccc1C(=O)c2ccc(cc2O)N(CC)CC,water,298,-7.599353521,mol/L
B#N,water,298,-6.394784279,mol/L
[Zn++].CCCCCCC(O)CCCCCCCCCCC([O-])=O.CCCCCCC(O)CCCCCCCCCCC([O-])=O,water,298,-7.822390402,mol/L
Cc1c(Cc2cc(c(O)c(c2)C(C)(C)C)C(C)(C)C)c(C)c(Cc3cc(c(O)c(c3)C(C)(C)C)C(C)(C)C)c(C)c1Cc4cc(c(O)c(c4)C(C)(C)C)C(C)(C)C,water,298,-7.981473646,mol/L
CC(C)(c1ccccc1)c2ccc(Nc3ccc(cc3)C(C)(C)c4ccccc4)cc2,water,298,-7.782007082,mol/L
CCN(CC)c1ccc2C=C(C(=O)Oc2c1)c3oc4ccc(cc4n3)[S](N)(=O)=O,water,298,-7.831098413,mol/L
O=C1c2ccccc2C(=O)c3c4Nc5ccc6C(=O)c7ccccc7C(=O)c6c5Nc4ccc13,water,298,-7.946874563,mol/L
CC(C)(c1ccccc1)c2cc(n3nc4ccccc4n3)c(O)c(c2)C(C)(C)c5ccccc5,water,298,-7.951902608,mol/L
CCCCC(CC)COCCCNC(=O)Nc1cccc2c(NC(=O)NCCCOCC(CC)CCCC)cccc12,water,298,-8.06807152,mol/L
S,water,298,-6.83356781,mol/L
Cc1cc(CCC(=O)OCC(C)(C)[CH]2OC[C]3(CO2)CO[CH](OC3)C(C)(C)COC(=O)CCc4cc(C)c(O)c(c4)C(C)(C)C)cc(c1O)C(C)(C)C,water,298,-8.267743564,mol/L
[Ti+4].Fc1ccc(N2C=C[C-]=C2)c(F)c1.Fc3ccc(N4C=C[C-]=C4)c(F)c3.[cH-]5cccc5.[cH-]6cccc6,water,298,-8.125789392,mol/L
CCN(CC)c1ccc2c(OC(=O)C(=C2C#N)c3sc4ccccc4n3)c1,water,298,-8.097434324,mol/L
N#Cc1ccc(C=Cc2ccc(cc2)C=Cc3cccc(c3)C#N)cc1,water,298,-8.123728846,mol/L
COc1cc(ccc1N=NC(C(C)=O)C(=O)Nc2ccccc2)c3ccc(N=NC(C(C)=O)C(=O)Nc4ccccc4)c(OC)c3,water,298,-8.616766696,mol/L
[Cu]1N2C3=NC4=NC(=Nc5n1c(N=C6N=C(N=C2c7ccccc37)c8ccccc68)c9ccccc59)c%10ccccc4%10,water,298,-8.857394319,mol/L
CCN(CCOc1ccc(cc1)C2CCCCC2)c3ccc(C=C(C#N)C#N)c(C)c3,water,298,-8.771445737,mol/L
CCCCC(CC)CO[P](=O)(OCC(CC)CCCC)OCC(CC)CCCC,water,298,-8.85998044,mol/L
CCCCCCOc1ccc(c(O)c1)c2nc(nc(n2)c3ccccc3)c4ccccc4,water,298,-9.15181097,mol/L
CCCCCCCCCCCCCCCCCCCC\C=C\C\C=C\CCCCCCCCCCCNCCCCCCCCCCCCCCCCCCCC\C=C\C\C=C\CCCCCCCCCCC,water,298,-9.707106255,mol/L
CCCCCC(CCC)COC(=O)c1ccccc1C(=O)OCC(CCC)CCCCC,water,298,-9.649988729,mol/L
CC1COc2ccccc2N1C(=O)C(Cl)Cl,water,298,-3.835390149,mol/L
[H+].[Cl-].Fc1ccc(cc1)C(=O)C2CCNCC2,water,298,0.589019569,mol/L
OCC(=O)CO,water,298,1.013864214,mol/L
[Na+].[Na+].[O-][S](=O)(=O)c1ccc2c(C=CC(=O)/C2=N/Nc3ccc(N=Nc4ccc(Nc5ccccc5)c(c4)[S]([O-])(=O)=O)c6ccccc36)c1,water,298,-0.875909937,mol/L
[Na+].[Na+].Oc1cc(cc2cc(cc(N=Nc3cc(N=Nc4cc(cc(c4O)[N+]([O-])=O)[N+]([O-])=O)c(O)c(N=Nc5ccc(cc5)[N+]([O-])=O)c3O)c12)[S]([O-])(=O)=O)[S]([O-])(=O)=O,water,298,-0.967567025,mol/L
NC(N)=S,water,298,0.072720909,mol/L
[Na+].[Na+].Oc1c2ccc(NC(=O)Nc3ccc4c(O)c(N=Nc5ccccc5)c(cc4c3)[S]([O-])(=O)=O)cc2cc(c1N=Nc6ccccc6)[S]([O-])(=O)=O,water,298,-1.887246692,mol/L
[Cl-].C[N+](C)(C)CC1CO1,water,298,0.749634411,mol/L
[Li+].[Cl-],water,298,1.29438208,mol/L
CC(C)c1ccc(cc1)[S](O)(=O)=O,water,298,0.612751114,mol/L
Cc1cccc(c1C)[S](O)(=O)=O,water,298,0.64428885,mol/L
[Na+].[Na+].COc1cc(c(C)cc1NC(=O)C(N=Nc2ccc(cc2)c3sc4c(ccc(C)c4[S]([O-])(=O)=O)n3)C(C)=O)[S]([O-])(=O)=O,water,298,-0.916346136,mol/L
[Cr].CC([O-])=O,water,298,0.863005566,mol/L
[Na+].[Na+].[O-][S](=O)(=O)c1cc(N\N=C2/C(=O)C=Cc3ccccc23)ccc1c4ccc(N\N=C5/C(=O)C=Cc6ccccc56)cc4[S]([O-])(=O)=O,water,298,-1.897313906,mol/L
Nc1ccc(cc1)C#N,water,298,-1.142974365,mol/L
Nc1ccc(cc1)C#N,water,298,-1.163908272,mol/L
[K+].[O-]C(=O)CS,water,298,0.780671021,mol/L
[Na+].OC(COCC=C)C[S]([O-])(=O)=O,water,298,0.55383995,mol/L
O=C1OCCO1,water,298,0.946191052,mol/L
OC(=O)CC(=C)C(O)=O,water,298,-0.225028298,mol/L
[Na+].OCCN1CCN(CC1)CC[S]([O-])(=O)=O,water,298,0.464610932,mol/L
[Cl-].N[C@@H](CCCN=C(N)N)C(O)=O.[H+],water,298,0.539730472,mol/L
[Cl-].[Cl-].[Cl-].[Cr+3],water,298,0.645466259,mol/L
[Na+].CC(Nc1ccc(N\N=C\2C=C(c3ccccc3C2=O)[S]([O-])(=O)=O)c(C)c1)C(=O)c4ccccc4,water,298,-1.812900622,mol/L
OC(=O)c1cc(Br)nn1c2ncccc2Cl,water,298,-1.597085479,mol/L
Nc1cnn(CCO)c1N.O[S](O)(=O)=O,water,298,0.442827102,mol/L
ClCC1CO1,water,298,-0.147373679,mol/L