Solute,Solvent,Temperature_K,Solubility,Units
C[C@H](CCC(O)=O)[C@H]1CC[C@H]2[C@@H]3[C@H](O)[C@H](O)[C@@H]4C[C@H](O)CC[C@]4(C)[C@H]3CC[C@]12C,water,298,-4.346,mol/L
o1c2ccccc2c3ccccc13,water,298,-4.734,mol/L
O1c2ccccc2Oc3ccccc13,water,298,-5.311,mol/L
Clc1cc2Oc3cc(Cl)c(Cl)cc3Oc2cc1Cl,water,298,-9.207,mol/L
Clc1c(Cl)c(Cl)c2Oc3c(Cl)c(Cl)c(Cl)c(Cl)c3Oc2c1Cl,water,298,-12.06,mol/L
Clc1c(Cl)c(Cl)c2Oc3ccccc3Oc2c1Cl,water,298,-8.708,mol/L
Clc1cc(Cl)c2Oc3cc(Cl)cc(Cl)c3Oc2c1,water,298,-9.003,mol/L
Clc1ccc2Oc3cc(Cl)ccc3Oc2c1,water,298,-7.829,mol/L
Clc1cc2Oc3c(Cl)c(Cl)c(Cl)c(Cl)c3Oc2cc1Cl,water,298,-10.949,mol/L
Clc1cccc2Oc3ccccc3Oc12,water,298,-5.72,mol/L
Clc1ccc2Oc3ccccc3Oc2c1,water,298,-5.836,mol/L
Clc1cc(Cl)c2Oc3ccccc3Oc2c1Cl,water,298,-7.534,mol/L
Clc1ccc2Oc3c(Cl)c(Cl)c(Cl)c(Cl)c3Oc2c1,water,298,-9.473,mol/L
Clc1cc2oc3cc(Cl)c(Cl)cc3c2cc1Cl,water,298,-8.646,mol/L
Clc1ccc2Oc3c(Cl)c(Cl)c(Cl)cc3Oc2c1,water,298,-8.874,mol/L
Cc1ccccc1[N+]([O-])=O,water,298,-2.324,mol/L
COc1ccccc1[N+]([O-])=O,water,298,-1.957,mol/L
[O-][N+](=O)c1ccccc1,water,298,-1.77,mol/L
Cc1cccc(c1)[N+]([O-])=O,water,298,-2.438,mol/L
[O-][N+](=O)c1cc(cc(c1)[N+]([O-])=O)[N+]([O-])=O,water,298,-2.885,mol/L
[O-][N+](=O)c1cccc(c1)[N+]([O-])=O,water,298,-2.499,mol/L
Cc1ccc(cc1)[N+]([O-])=O,water,298,-2.492,mol/L
COc1ccc(cc1)[N+]([O-])=O,water,298,-2.414,mol/L
[O-][N+](=O)c1ccc(cc1)[N+]([O-])=O,water,298,-3.387,mol/L
Cc1c(cc(cc1[N+]([O-])=O)[N+]([O-])=O)[N+]([O-])=O,water,298,-3.242,mol/L
[O-][N+](=O)c1ccccc1[N+]([O-])=O,water,298,-3.102,mol/L
COc1cccc(c1)[N+]([O-])=O,water,298,-2.486,mol/L
Cc1c(cccc1[N+]([O-])=O)[N+]([O-])=O,water,298,-3.0,mol/L
Cc1ccc(c(c1)[N+]([O-])=O)[N+]([O-])=O,water,298,-3.26,mol/L
CCOC(N)=O,water,298,0.731,mol/L
CC(N)=O,water,298,1.581,mol/L
CN(C)C=O,water,298,1.136,mol/L
NC=O,water,298,1.346,mol/L
NC(=O)C=C,water,298,0.954,mol/L
NC(=O)CCl,water,298,-0.017,mol/L
CNC(C)=O,water,298,1.136,mol/L
CC(=O)Nc1ccc(O)cc1,water,298,-1.033,mol/L
O=C1CCCCCN1,water,298,0.834,mol/L
CN(C)C(C)=O,water,298,1.06,mol/L
CCCC(N)=O,water,298,0.272,mol/L
NC(=O)CF,water,298,1.113,mol/L
NC(N)=O,water,298,0.958,mol/L
NC(=O)NO,water,298,1.119,mol/L
ClCCNC(=O)N(CCCl)N=O,water,298,-1.728,mol/L
NC(=O)NCc1ccccc1,water,298,-0.946,mol/L
CNC(N)=O,water,298,1.13,mol/L
CN(C)C(=O)N(C)C,water,298,0.935,mol/L
CN(N=O)C(N)=O,water,298,-0.855,mol/L
CCN(N=O)C(N)=O,water,298,-0.955,mol/L
C[N+]([O-])=O,water,298,0.26,mol/L
CC[N+]([O-])=O,water,298,-0.203,mol/L
CCC[N+]([O-])=O,water,298,-0.774,mol/L
[O-][N+](=O)N1CN(CN(C1)[N+]([O-])=O)[N+]([O-])=O,water,298,-3.571,mol/L
CCCC[N+]([O-])=O,water,298,-1.351,mol/L
CCCCC[N+]([O-])=O,water,298,-1.955,mol/L
[O-][N+](=O)OCCO[N+]([O-])=O,water,298,-1.35,mol/L
Cc1ccc(cc1)[S](N)(=O)=O,water,298,-1.734,mol/L
Cc1cccc(c1)[S](N)(=O)=O,water,298,-1.341,mol/L
N[S](=O)(=O)c1ccc(CCCCO)cc1,water,298,-1.193,mol/L
N[S](=O)(=O)c1ccc(CCCCCO)cc1,water,298,-1.971,mol/L
O=C(COC(=O)c1ccccc1)N2CCCC2,water,298,-1.569,mol/L
CC(=O)Oc1ccccc1C(=O)Oc2ccccc2,water,298,-4.108,mol/L
CC(=O)Nc1ccc(OC(=O)c2ccccc2OC(C)=O)cc1,water,298,-4.195,mol/L
NC(=O)COC(=O)c1ccccc1,water,298,-1.641,mol/L
CCNC(=O)COC(=O)c1ccccc1,water,298,-2.237,mol/L
CC(=O)NC(=O)COC(=O)c1ccccc1,water,298,-2.4,mol/L
CSCOC(=O)c1ccccc1OC(C)=O,water,298,-2.64,mol/L
CC(=O)Oc1ccccc1C(=O)OC[S](C)=O,water,298,-1.782,mol/L
CC(=O)Oc1ccccc1C(=O)OC[S](C)(=O)=O,water,298,-3.394,mol/L
CNC(=O)COC(=O)c1ccccc1,water,298,-1.718,mol/L
CCCNC(=O)COC(=O)c1ccccc1,water,298,-2.539,mol/L
O=C(COC(=O)c1ccccc1)N2CCCCC2,water,298,-2.501,mol/L
O=C(COC(=O)c1ccccc1)N2CCOCC2,water,298,-1.773,mol/L
O=C(COC(=O)c1ccccc1)N2CCC2,water,298,-1.609,mol/L
OC1CCN(CC1)C(=O)COC(=O)c2ccccc2,water,298,-1.349,mol/L
OC(=O)[C@@H]1CCCN1C(=O)COC(=O)c2ccccc2,water,298,-1.592,mol/L
CN(C)C(=O)CCCOC(=O)c1ccccc1,water,298,-1.229,mol/L
CCCCNC(=O)COC(=O)c1ccccc1,water,298,-2.759,mol/L
CCOC(=O)OCC,water,298,-0.798,mol/L
CC1=C(O)C(=O)C=CO1,water,298,-1.063,mol/L
CCC(O)(COC(N)=O)c1ccccc1,water,298,-0.923,mol/L
OC(=O)c1c(Cl)ccc(Cl)c1Cl,water,298,-1.467,mol/L
Oc1ccc(Cl)cc1C(=O)Nc2ccc(cc2Cl)[N+]([O-])=O,water,298,-4.702,mol/L
OCC(O)C1OC(=C(O)C1=O)O,water,298,0.277,mol/L
OC(=O)c1ccc(Cl)cc1Cl,water,298,-2.603,mol/L
CN1[C@@H]2CC(C[C@H]1C3OC23)OC(=O)[C@H](CO)c4ccccc4,water,298,-0.504,mol/L
NCCc1ccc(O)cc1,water,298,-1.12,mol/L
OCC(Br)(CO)[N+]([O-])=O,water,298,0.097,mol/L
ClC(Cl)C(c1ccc(Cl)cc1)c2ccccc2Cl,water,298,-6.505,mol/L
C[C@]12CC[C@@H](O)C[C@@H]1CC[C@@H]3[C@@H]2CC[C@@]4(C)[C@H]3CCC4=O,water,298,-4.402,mol/L
C[C@]12CC[C@H]3[C@@H](CC=C4C[C@@H](O)CC[C@]34C)[C@@H]1CCC2=O,water,298,-4.122,mol/L
CC(=O)Nc1ccc2c(Cc3ccccc23)c1,water,298,-4.625,mol/L
C[C@@]12[C@H]3CC[C@H](O3)[C@]1(C)C(=O)OC2=O,water,298,-3.816,mol/L
NC(Cc1c[nH]c2ccc(O)cc12)C(O)=O,water,298,-1.343,mol/L
CCO[P](=S)(OCC)Oc1ccc2C(=C(Cl)C(=O)Oc2c1)C,water,298,-5.384,mol/L
OCC(O)C=O,water,298,-0.489,mol/L
C=CCN=C=S,water,298,-1.695,mol/L
CN(C)N,water,298,1.221,mol/L
O=C1CCO1,water,298,0.711,mol/L
C[C@]12CC[C@H]3[C@@H](CCc4cc(O)ccc34)[C@@H]1CC[C@@]2(O)C#C,water,298,-4.419,mol/L
CCC(=O)O[C@H]1CC[C@H]2[C@@H]3CCC4=CC(=O)CC[C@]4(C)[C@H]3CC[C@]12C,water,298,-5.367,mol/L
CN1CCN(CCCN2c3ccccc3Sc4ccc(Cl)cc24)CC1,water,298,-4.397,mol/L
OC(=O)CCCCC1SCC2NC(=O)NC12,water,298,-3.046,mol/L
OC1COC(O)C(O)C1O,water,298,0.824,mol/L
OCC1OC(O)C(O)C(O)C1O,water,298,0.579,mol/L
Nc1ccc(cc1)[S](=O)(=O)Nc2cnc3ccccc3n2,water,298,-4.603,mol/L
OCC(S)CS,water,298,-0.155,mol/L
Nc1ccc(cc1)N=Nc2ccccc2,water,298,-3.181,mol/L
OC[C@H]1O[C@@H](Oc2cc(O)cc(O)c2C(=O)CCc3ccc(O)cc3)[C@H](O)[C@@H](O)[C@@H]1O,water,298,-2.64,mol/L
CCO[S](C)(=O)=O,water,298,0.402,mol/L
OC(=O)C1=CC(=O)NC(=O)N1,water,298,-1.933,mol/L
C[C@]12CC[C@H]3[C@@H](CCC4=CC(=O)CC[C@H]34)[C@@H]1CC[C@@]2(O)C#C,water,298,-4.627,mol/L
OC(=O)CC(S)C(O)=O,water,298,0.522,mol/L
CCC(=O)c1ccc(N)cc1,water,298,-2.627,mol/L
Oc1ccc2C(=O)c3ccccc3C(=O)c2c1O,water,298,-2.779,mol/L
N[S](=O)(=O)c1cc2c(NC(Cc3ccccc3)N[S]2(=O)=O)cc1C(F)(F)F,water,298,-3.591,mol/L
CCC1NC(=O)c2cc(c(Cl)cc2N1)[S](N)(=O)=O,water,298,-3.286,mol/L
CS,water,298,-0.495,mol/L
ClC=C,water,298,-1.36,mol/L
FC=C,water,298,-0.276,mol/L
CCS,water,298,-0.6,mol/L
CSC,water,298,-0.994,mol/L
BrC(Br)Br,water,298,-1.808,mol/L
CC(C)Br,water,298,-1.631,mol/L
ClC(Cl)Br,water,298,-1.733,mol/L
CC(C)I,water,298,-2.084,mol/L
CC(=O)C(C)(C)C,water,298,-0.722,mol/L
CC(C)(C)C(O)=O,water,298,-0.673,mol/L
CC(Cl)(Cl)C(O)=O,water,298,0.545,mol/L
CC(O)C(Cl)(Cl)Cl,water,298,-0.757,mol/L
FC(Cl)(Cl)C(F)(Cl)Cl,water,298,-3.189,mol/L
FC(F)(F)C(F)(F)Cl,water,298,-3.411,mol/L
FC(F)(F)C(F)(F)C(F)(F)F,water,298,-4.518,mol/L
CCC(C)([S](=O)(=O)CC)[S](=O)(=O)CC,water,298,-1.685,mol/L
CC1(C)C2CCC1(C)C(=O)C2,water,298,-1.987,mol/L
Oc1ccc(cc1)C2(OC(=O)c3ccccc23)c4ccc(O)cc4,water,298,-2.901,mol/L
N[S](=O)(=O)c1cc(ccc1Cl)C2(O)NC(=O)c3ccccc23,water,298,-3.451,mol/L
CCC(C)(O)C#C,water,298,0.115,mol/L
CCOC(=O)CC(O)(CC(=O)OCC)C(=O)OCC,water,298,-0.603,mol/L
OC1CC(O)(CC(O)C1O)C(O)=O,water,298,0.179,mol/L
CCC(C)(CC)OC(N)=O,water,298,-1.56,mol/L
CCCC(C)(COC(N)=O)COC(=O)NC(C)C,water,298,-2.938,mol/L
CC(C)=CCCC(C)(O)C=C,water,298,-1.987,mol/L
CC(Br)CBr,water,298,-2.141,mol/L
CC(C)CBr,water,298,-2.432,mol/L
CCC(C)C,water,298,-3.163,mol/L
CC(=C)C=C,water,298,-2.034,mol/L
CC(C)C=O,water,298,0.091,mol/L
CC(=C)C=O,water,298,-0.039,mol/L
CCC(C)Cl,water,298,-1.966,mol/L
CC(Cl)CCl,water,298,-1.606,mol/L
ClCC(Cl)=C,water,298,-1.713,mol/L
BrC(Br)C(Br)Br,water,298,-2.732,mol/L
CC(C)[N+]([O-])=O,water,298,-0.615,mol/L
CC1(C)OC(=O)C[C@@H]1C([O-])=O,water,298,-1.245,mol/L
Nc1ccc(cc1)[S](=O)(=O)c2ccc(NCCO)cc2,water,298,-2.597,mol/L
CCC(C)(C)c1ccc(O)cc1,water,298,-2.99,mol/L
CC(C)(O)C1CCC(C)(O)CC1,water,298,-1.634,mol/L
CC(=O)C1CC[C@H]2[C@@H]3CCC4=CC(=O)CC[C@]4(C)[C@H]3[C@H](O)C[C@]12C,water,298,-3.82,mol/L
CN1C(c2ccc(Cl)cc2)[S](=O)(=O)CCC1=O,water,298,-2.039,mol/L
Oc1ccc(cc1)C(c2ccc(O)cc2)c3ccccc3C(O)=O,water,298,-3.263,mol/L
Oc1c(cc(c(O)c1[N+]([O-])=O)[N+]([O-])=O)[N+]([O-])=O,water,298,-1.662,mol/L
CN1CCN(CC1)C(c2ccccc2)c3ccccc3,water,298,-2.426,mol/L
C[C@H]1C[C@H]2[C@@H]3CC[C@](O)(C(=O)CO)[C@@]3(C)C[C@H](O)[C@@H]2[C@@]4(C)C=CC(=O)C=C14,water,298,-3.494,mol/L
c1ccc(cc1)c2ccccc2c3ccccc3,water,298,-5.269,mol/L
CCC(C(CC)c1ccc(O)cc1)c2ccc(O)cc2,water,298,-4.353,mol/L
C/C=C(c1ccc(O)cc1)/C(=C/C)c2ccc(O)cc2,water,298,-4.948,mol/L
COc1ccc2nccc(C(=O)C3CC4CCN3CC4C=C)c2c1,water,298,-5.031,mol/L
OC(=O)c1cccc(c1O)[N+]([O-])=O,water,298,-2.149,mol/L
Nc1ccc2ccccc2c1N=Nc3ccccc3,water,298,-5.916,mol/L
CN1C2CCC1CC(C2)OC(=O)C(O)c3ccccc3,water,298,-1.44,mol/L
CC(C)CCOC(=O)c1ccccc1O,water,298,-3.157,mol/L
CC(=O)N[C@@H](Cc1c[nH]c2ccccc12)C([O-])=O,water,298,-2.312,mol/L
Clc1ncnc2nc[nH]c12,water,298,-1.49,mol/L
Oc1cccc(O)c1O,water,298,0.604,mol/L
OC(C(O)C(O)=O)C(O)=O,water,298,0.589,mol/L
OCC(O)C(O)C(O)C(=O)CO,water,298,0.301,mol/L
OC1C(O)C(O)C(O)C(O)C1O,water,298,-0.1,mol/L
OCC(O)C(O)C(O)CO,water,298,0.625,mol/L
Cc1cc(O)cc(C)c1Cl,water,298,-2.797,mol/L
[O-][N+](=O)c1cc(c(Cl)c(c1)[N+]([O-])=O)[N+]([O-])=O,water,298,-2.669,mol/L
OC(=O)c1cccnc1C(O)=O,water,298,-1.182,mol/L
OC(=O)c1cc(C(O)=O)c(cc1C(O)=O)C(O)=O,water,298,-1.259,mol/L
CC(C)[C@@H]1CC[C@@H](C)C[C@H]1O,water,298,-2.535,mol/L
Brc1cccc2ccccc12,water,298,-4.347,mol/L
C1CCN2C[C@@H]3C[C@@H](CN4CCCC[C@H]34)[C@@H]2C1,water,298,-1.887,mol/L
C1CCC2CCCCC2C1,water,298,-5.192,mol/L
COc1ccccc1OCC(O)CO,water,298,-0.598,mol/L
Cc1ccc2ccc(C)nc2c1,water,298,-1.944,mol/L
ClCC(=O)N(CC=C)CC=C,water,298,-0.945,mol/L
CC(C)COC(=O)c1ccc(N)cc1,water,298,-2.944,mol/L
CCOc1ccc(cc1)C(=O)OCCN(CC)CC,water,298,-2.715,mol/L
CCCCOC(=O)c1ccc(N)cc1,water,298,-2.755,mol/L
O=C(/C=C/C=C/c1ccc2OCOc2c1)N3CCCCC3,water,298,-3.853,mol/L
CCCC(O)C(CC)CO,water,298,-1.387,mol/L
CCN(CC)C(=S)SCC(Cl)=C,water,298,-3.35,mol/L
Cc1ccc(Cl)c(Cl)c1,water,298,-3.792,mol/L
ClCC(Br)CBr,water,298,-2.374,mol/L
OC(CCl)CCl,water,298,-0.115,mol/L
CC1CCCO1,water,298,0.31,mol/L
COC1OC(CO)C(O)C(O)C1O,water,298,0.299,mol/L
Cc1ccccc1N=Nc2ccc(N)c(C)c2,water,298,-4.508,mol/L
OC(=O)CC(=C)C(O)=O,water,298,-0.229,mol/L
CC(C)COC(=O)C(C)C,water,298,-2.403,mol/L
CCC(CC)CO,water,298,-1.407,mol/L
ClC(Cl)(Cl)c1ccccc1,water,298,-3.567,mol/L
CC(C)(C)c1ccc(O)c(O)c1,water,298,-1.92,mol/L
CC1=CC[C@@H](CC1)C(C)(C)O,water,298,-1.889,mol/L
OC(=O)C1CCC(=O)N1,water,298,0.567,mol/L
CC(N)c1ccccc1,water,298,-0.46,mol/L
OC(=O)CC(CC(O)=O)C(O)=O,water,298,0.275,mol/L
Nc1c(Cl)cc(cc1Cl)[N+]([O-])=O,water,298,-4.471,mol/L
CC(=C)C1CC=C(C)C(=O)C1,water,298,-2.063,mol/L
CCC(C)c1ccc(O)cc1,water,298,-2.194,mol/L
OC(=O)c1ccc(nc1)C(O)=O,water,298,-2.13,mol/L
C=CC1CCC=CC1,water,298,-3.335,mol/L
Cc1cccc(C=C)c1,water,298,-3.123,mol/L
ClCC#CCOC(=O)Nc1cccc(Cl)c1,water,298,-4.37,mol/L
CCCCN(CCCC)CCCC,water,298,-3.116,mol/L
C(OCc1ccccc1)c2ccccc2,water,298,-3.695,mol/L
CC(C)CC(=O)CC(C)C,water,298,-2.52,mol/L
CCOCCOC(=O)/C=C/c1ccc(OC)cc1,water,298,-2.699,mol/L
OCC(O)COc1ccc(Cl)cc1,water,298,-1.307,mol/L
COc1ccc(\C=C\C)cc1,water,298,-3.126,mol/L
CCCCC(CC)CO,water,298,-2.27,mol/L
Cc1ccc(C=O)cc1,water,298,-1.724,mol/L
OC(=O)/C=C/c1[nH]cnc1,water,298,-1.964,mol/L
CCCC(C)CO,water,298,-1.231,mol/L
COC(=O)CC(C)=O,water,298,0.634,mol/L
CCC(C)OC(C)=O,water,298,-1.273,mol/L
CCCC(=O)OCC,water,298,-1.275,mol/L
CCOC(=O)CC#N,water,298,-0.753,mol/L
CCCOC(=O)CCC,water,298,-1.905,mol/L
CCCCCCC(=O)OCC,water,298,-2.737,mol/L
CCCCCCCC(=O)OCC,water,298,-3.391,mol/L
CCCCC(=O)CC,water,298,-0.902,mol/L
CCCOC(=O)CC,water,298,-1.34,mol/L
CCCCCC(=O)OC,water,298,-1.991,mol/L
CCC1CO1,water,298,-0.086,mol/L
C=CCOCC1CO1,water,298,0.092,mol/L
CCC#C,water,298,-1.275,mol/L
ClCCBr,water,298,-1.318,mol/L
ClCC=C,water,298,-1.884,mol/L
COC=O,water,298,0.704,mol/L
NCC[S](O)(=O)=O,water,298,-0.191,mol/L
NC(=O)OCC(Cl)(Cl)Cl,water,298,-1.284,mol/L
CC(C)CCBr,water,298,-2.887,mol/L
CCCC(C)C,water,298,-3.74,mol/L
NC(=O)CC#N,water,298,0.189,mol/L
CC(C)CC(C)C,water,298,-4.261,mol/L
CC(C)CC(C)O,water,298,-0.795,mol/L
CC(C)NC(C)C,water,298,0.036,mol/L
CC(C)OC(C)=O,water,298,-0.519,mol/L
CC(=O)OC(C)=O,water,298,0.07,mol/L
C=C1OC(=O)C=C1,water,298,-0.983,mol/L
CC1COC(=O)O1,water,298,0.234,mol/L
Cc1ccnc(C)c1,water,298,0.514,mol/L
CCOC(=O)CC(C)C,water,298,-1.652,mol/L
CC(C)CC(O)CC(C)C,water,298,-2.159,mol/L
CC(C)CC(=O)CC(C)C,water,298,-1.731,mol/L
CC(C)CC(C)OC(C)=O,water,298,-2.045,mol/L
CC1CCCCC1,water,298,-3.788,mol/L
CC1CNCCN1,water,298,0.638,mol/L
CCCCOC(=O)CCC,water,298,-2.46,mol/L
NC(=S)NCC=C,water,298,-0.294,mol/L
BrCCCBr,water,298,-2.075,mol/L
CCCC=C,water,298,-2.676,mol/L
CC\C=C/C,water,298,-2.538,mol/L
C=COC=C,water,298,-1.261,mol/L
OC(=O)\C=C\C(O)=O,water,298,0.58,mol/L
CC(C)COC(C)=O,water,298,-1.266,mol/L
CCCCCCCCCC(=O)OCC,water,298,-4.1,mol/L
CCOC(=O)CCCCCCCCC(=O)OCC,water,298,-3.51,mol/L
CC(C)CCOC=O,water,298,-1.547,mol/L
CCCCCCCC(=O)OC,water,298,-3.39,mol/L
CCCCCCC(O)=O,water,298,-1.664,mol/L
CCOCCOC(C)=O,water,298,0.272,mol/L
OC(=O)CCSCCC(O)=O,water,298,-0.68,mol/L
OC(=O)CCCCCCCCC(O)=O,water,298,-2.306,mol/L
CCCCOC=C,water,298,-1.524,mol/L
CC(=O)OCCOC(C)=O,water,298,0.086,mol/L
CCCCCCC=O,water,298,-1.961,mol/L
CCCCCCCCC,water,298,-5.766,mol/L
NCCNCCNCCN,water,298,0.835,mol/L
ClCCOCCOCCCl,water,298,-0.996,mol/L
NCCNCCNCCNCCN,water,298,0.723,mol/L
CCCCCCCCCCCCCCO,water,298,-5.854,mol/L
CCCCCCCCCCCCCCCCCCO,water,298,-8.391,mol/L
CC[S](=O)(=O)C(C)(C)[S](=O)(=O)CC,water,298,-1.927,mol/L
FC1(F)C(F)(F)C(F)(F)C1(F)F,water,298,-3.638,mol/L
COC1=CC=C2[C@H]3Cc4ccc(OC)c5O[C@@H]1[C@]2(CCN3C)c45,water,298,-2.661,mol/L
CO[P](=O)(Oc1ccccc1)Oc2ccccc2,water,298,-2.121,mol/L
CCNC(=O)CS[P](=S)(OC)OC,water,298,-1.457,mol/L
ClC1=C(Cl)C(=O)c2ccccc2C1=O,water,298,-4.382,mol/L
Oc1ccccc1C(=O)Oc2ccccc2,water,298,-3.155,mol/L
COc1ccc(cc1[N+]([O-])=O)[N+]([O-])=O,water,298,-3.107,mol/L
OC(c1ccccc1)C(=O)c2ccccc2,water,298,-2.85,mol/L
C1CCc2ccccc2C1,water,298,-3.452,mol/L
CNc1ccccc1C(O)=O,water,298,-2.878,mol/L
OCCN(CCO)c1ccccc1,water,298,-0.735,mol/L
Oc1ccc(Cl)cc1Cc2ccccc2,water,298,-3.167,mol/L
CN(C)C(=O)OC1=CC(=O)CC(C)(C)C1,water,298,-0.848,mol/L
C1OC1COc2ccccc2,water,298,-1.796,mol/L
CCCCC(CC)CCl,water,298,-3.172,mol/L
CCCC(=O)CCC,water,298,-1.552,mol/L
OC(=O)CCC(=O)OOC(=O)CCC(O)=O,water,298,-0.847,mol/L
CCCCCCCCC(=O)OCC,water,298,-3.8,mol/L
O=C1CCC(=O)N1,water,298,0.296,mol/L
CCCCCC(=O)OCC,water,298,-2.36,mol/L
C/C=C/C=O,water,298,0.33,mol/L
CC(C)CCOC(C)=O,water,298,-1.814,mol/L
NCCCCCCN,water,298,0.935,mol/L
CCCCCCCC=O,water,298,-2.36,mol/L
CCCCOCCOCCOC(C)=O,water,298,-0.497,mol/L
CCCCCCCCC=O,water,298,-3.171,mol/L
ClC(Br)Br,water,298,-1.919,mol/L
FC(Br)C(F)(F)F,water,298,-1.901,mol/L
CC(=O)C1C(=O)C=C2Oc3c(C(C)=O)c(O)c(C)c(O)c3C2(C)C1=O,water,298,-3.537,mol/L
OCC(CO)(CO)[N+]([O-])=O,water,298,0.821,mol/L
NC(=O)OC1(CCCCC1)C#C,water,298,-1.825,mol/L
CCO[P](=O)(OCC)SCCSCC,water,298,-2.111,mol/L
CCCC1OC1(CC)C(N)=O,water,298,-1.175,mol/L
COc1ccc2[C@H](OC(=O)c2c1OC)[C@@H]3N(C)CCc4cc5OCOc5c(OC)c34,water,298,-3.139,mol/L
OC(=O)c1c(cc(cc1[N+]([O-])=O)[N+]([O-])=O)[N+]([O-])=O,water,298,-1.098,mol/L
COc1ccc(C(=O)Cc2c(CCN(C)C)cc3OCOc3c2OC)c(C(O)=O)c1OC,water,298,-2.535,mol/L
Oc1c(cc(cc1[N+]([O-])=O)[N+]([O-])=O)C2CCCCC2,water,298,-4.249,mol/L
OC(=O)c1cc(nc2ccccc12)c3ccccc3,water,298,-3.193,mol/L
OC(=O)c1ccccc1C(=O)Nc2cccc3ccccc23,water,298,-3.163,mol/L
OC(C(O)C(O)=O)C(O)=O,water,298,0.156,mol/L
Cc1cc(O)c(Cl)c(C)c1Cl,water,298,-2.98,mol/L
N[S](=O)(=O)c1cc2c(NCN[S]2(=O)=O)cc1C(F)(F)F,water,298,-3.043,mol/L
Nc1ccc(cc1)c2ccc(Cl)cc2,water,298,-4.639,mol/L
CCOc1ccc(cc1N)[N+]([O-])=O,water,298,-3.211,mol/L
Cc1cc(C)c(N)cc1C,water,298,-1.955,mol/L
CCCCOC(=O)C(C)O,water,298,-0.563,mol/L
OC1CC(=CC(O)C1O)C(O)=O,water,298,-0.065,mol/L
CC(=C)C1CCC(=CC1)C,water,298,-4.194,mol/L
Oc1ccc(C=O)cc1O,water,298,-0.441,mol/L
CCNC(=O)Nc1sc(cn1)[N+]([O-])=O,water,298,-2.858,mol/L
COc1ccc(CC=C)cc1,water,298,-2.92,mol/L
CCOC(=O)CCCCC(=O)OCC,water,298,-1.68,mol/L
OC(=O)CC(O)=O,water,298,0.865,mol/L
C1CC=CC1,water,298,-2.105,mol/L
CC(=O)[C@H]1CC[C@H]2[C@@H]3CC=C4C[C@@H](O)CC[C@]4(C)[C@H]3CC[C@]12C,water,298,-4.652,mol/L
O[C@@H]([C@H](O)C(O)=O)C(O)=O,water,298,0.824,mol/L
OC(C(O)C(O)=O)C(O)=O,water,298,0.572,mol/L
Cc1c(cc(cc1[N+]([O-])=O)[N+]([O-])=O)C(N)=O,water,298,-2.352,mol/L
O[S](=O)(=O)OCCOc1ccc(Cl)cc1Cl,water,298,-0.06,mol/L
C[C@@H]1C[C@H]2[C@@H]3C[C@H](F)C4=CC(=O)C=C[C@]4(C)[C@H]3[C@@H](O)C[C@]2(C)[C@H]1C(=O)CO,water,298,-3.113,mol/L
C1c2cccc3ccc4cccc1c4c23,water,298,-5.238,mol/L
c1ccc2c(c1)cc3c4ccccc4c5cccc2c35,water,298,-8.226,mol/L
c1ccc2cc3c4cccc5cccc(c3cc2c1)c45,water,298,-8.499,mol/L
c1ccc2c(c1)cnc3ccccc23,water,298,-2.776,mol/L
C1CN2CCN1CC2,water,298,0.603,mol/L
C1CCCCCC1,water,298,-3.515,mol/L
COc1c2occc2cc3C=CC(=O)Oc13,water,298,-3.657,mol/L
CCC(C)(OC(N)=O)C#C,water,298,-0.946,mol/L
CNC(=O)Oc1cc(C)c(N(C)C)c(C)c1,water,298,-3.347,mol/L
Fc1cc(F)c(F)cc1F,water,298,-2.376,mol/L
Fc1ccccc1Cl,water,298,-2.416,mol/L
Fc1ccc(I)cc1,water,298,-3.126,mol/L
Fc1ccccc1F,water,298,-2.0,mol/L
C[C@]12CC(=O)[C@H]3[C@@H](CCC4=CC(=O)CC[C@]34C)[C@@H]1CCC2=O,water,298,-3.484,mol/L
FC(F)(F)COC=C,water,298,-1.478,mol/L
OC(=O)c1ccccc1C(F)(F)F,water,298,-1.598,mol/L
C[C@]12CCC(=O)C=C1CC[C@@H]3[C@@H]2CC[C@@]4(C)[C@H]3CC[C@@]4(O)C#C,water,298,-5.658,mol/L
CC(=O)NCc1c(I)c(NC(C)=O)c(I)c(C(O)=O)c1I,water,298,-2.321,mol/L
CCC[C@H]1CCCCN1,water,298,-0.849,mol/L
CC1(C)[C@H]2CC[C@@]1(C)C(=O)C2,water,298,-3.183,mol/L
CC1OC(O[C@H]2CC[C@]3(C)[C@H]4CC[C@]5(C)[C@H](CC[C@]5(O)[C@@H]4CCC3=C2)C6=COC(=O)C=C6)C(O)C(O)C1O,water,298,-3.955,mol/L
CC12CCC(CC1)C(C)(C)O2,water,298,-1.887,mol/L
C[C@]12CC[C@H]3C(=CCc4cc(O)ccc34)[C@@H]1CCC2=O,water,298,-5.279,mol/L
COc1cc(cc(OC)c1OC)[C@H]2[C@H]3[C@H](COC3=O)[C@@H](O)c4cc5OCOc5cc24,water,298,-3.617,mol/L
C1Cc2c3ccc4ccccc4c3cc5cccc1c25,water,298,-7.861,mol/L
OC[C@H]1O[C@@H](O[C@@H]2OC=C[C@H]3[C@H](O)C=C(CO)[C@@H]23)[C@H](O)[C@@H](O)[C@@H]1O,water,298,0.012,mol/L
Oc1ccc(c(O)c1)C2=C(O)C(=O)c3c(O)cc(O)cc3O2,water,298,-3.082,mol/L
Cc1cc(C)c(c(C)c1)C(O)=O,water,298,-2.357,mol/L
C[C@H]1[C@@H]2CC[C@@]3(C)C=CC(=O)C(=C3[C@H]2OC1=O)C,water,298,-3.09,mol/L
C[C@]12CC[C@H](O)C[C@@H]1CC[C@@H]3[C@@H]2CC[C@@]4(C)[C@H]3CCC4=O,water,298,-4.158,mol/L
CN1C2CCC1[C@H]([C@@H](O)C2)C(O)=O,water,298,-0.017,mol/L
COc1ccc2C=CC(=O)Oc2c1CC=C(C)C,water,298,-4.309,mol/L
O=C1C=CC=C2[C@@H]3CNC[C@H](C3)CN12,water,298,0.363,mol/L
OC(C1CC2CCN1CC2C=C)c3ccnc4ccccc34,water,298,-3.168,mol/L
O=C1NC(=O)c2nccnc2N1,water,298,-2.118,mol/L
OC1C(O)C(O)C(O)C(O)C1O,water,298,-1.251,mol/L
O[C@@H]1C[C@@H](O)[C@H](O)C(O)[C@H]1O,water,298,-0.174,mol/L
OC(=O)c1ccncc1C(O)=O,water,298,-1.854,mol/L
OC(=O)C(=C)c1ccccc1,water,298,-2.057,mol/L
OC[C@H]1O[C@H](O)[C@H](O)[C@@H](O)[C@@H]1O,water,298,0.443,mol/L
O=C(NN\C=C/1C=CC=CC1=O)c2ccncc2,water,298,-3.683,mol/L
CC(CC(O)=O)C(O)=O,water,298,0.703,mol/L
C\C(=C\C(O)=O)C(O)=O,water,298,0.779,mol/L
C\C(=C/C(O)=O)C(O)=O,water,298,-0.694,mol/L
OC(=O)C\C(=C/C(O)=O)C(O)=O,water,298,0.458,mol/L
CC(C)c1ccc(C)c(O)c1,water,298,-2.08,mol/L
OC(=O)c1ccnc(c1)C(O)=O,water,298,-1.827,mol/L
ClCCC(=O)NCc1ccccc1,water,298,-3.296,mol/L
CCCCC(=O)CCCC,water,298,-2.593,mol/L
O[S](=O)(=O)C[S](O)(=O)=O,water,298,0.754,mol/L
CC(C)CC(O)=O,water,298,-0.4,mol/L
OC(=O)CCCCCCC(O)=O,water,298,-1.169,mol/L
OC(=O)CCCCCCCCCCCC(O)=O,water,298,-2.212,mol/L
ClCCSCCCl,water,298,-2.363,mol/L
OC(=O)\C=C/C=C\C(O)=O,water,298,-2.852,mol/L
CC(C)(C)Br,water,298,-2.359,mol/L
CC(C)(C)Cl,water,298,-1.507,mol/L
CC(C)(C)CC(=O)OCC(=O)C1(O)CCC2C3CCC4=CC(=O)CCC4(C)C3C(O)CC12C,water,298,-5.511,mol/L
CCOC(=O)C(O)(c1ccc(Cl)cc1)c2ccc(Cl)cc2,water,298,-4.512,mol/L
C[C@@H]1CC[C@@]2(OC1)O[C@H]3C[C@H]4[C@@H]5CC=C6C[C@@H](O)CC[C@]6(C)[C@H]5CC[C@]4(C)[C@H]3[C@@H]2C,water,298,-7.317,mol/L
CC=C(C)C,water,298,-2.56,mol/L
CC(C)CCl,water,298,-2.0,mol/L
CC12CC[C@H](O)CC1CCC3C4CCC(=O)C4(C)CC(O)C23,water,298,-3.593,mol/L
Cc1csc(N[S](=O)(=O)c2ccc(N)cc2)n1,water,298,-2.129,mol/L
Cc1cc(N[S](=O)(=O)c2ccc(N)cc2)nc(C)n1,water,298,-2.238,mol/L
CC12CCc3c(ccc4cc(O)ccc34)C1CCC2=O,water,298,-5.244,mol/L
CC(=O)C1CCOC1=O,water,298,0.193,mol/L
COc1cc(cc(OC)c1OC)[C@H]2[C@@H]3[C@H](COC3=O)Cc4c(O)c5OCOc5cc24,water,298,-4.503,mol/L
Oc1cc(O)c(c(O)c1)C(=O)c2ccc(O)c(O)c2,water,298,-1.72,mol/L
CC(=O)C1C(=O)OC(=CC1=O)C,water,298,-1.226,mol/L
COC1=C(C#N)C(=O)N(C)C=C1,water,298,-1.784,mol/L
Cc1cccc(O)c1C,water,298,-1.427,mol/L