Solute,Solvent,Temperature_K,Solubility,Units
ClC1=CC=C(Cl)C(=C1)C2=C(Cl)C=C(Cl)C=C2Cl,water,298,-7.47,mol/L
ClC1=CC(=C(Cl)C(=C1)C2=C(Cl)C(=CC=C2)Cl)Cl,water,298,-6.96,mol/L
ClC1=CC(=C(C(=C1)Cl)C2=CC=CC(=C2Cl)Cl)Cl,water,298,-7.4,mol/L
ClC1=CC(=CC=C1)C2=C(Cl)C(=CC(=C2Cl)Cl)Cl,water,298,-7.76,mol/L
ClC1=CC=C(SC2=CC(=C(Cl)C=C2Cl)Cl)C=C1,water,298,-7.03,mol/L
ClC1=C(Cl)C(=C(C=C1)C2=C(Cl)C=CC=C2Cl)Cl,water,298,-6.78,mol/L
CCCN1C(=O)N(CCC)C2=C([NH]C(=N2)C3CCCC3)C1=O,water,298,-4.96,mol/L
CC1=CC=C(C=C1)C(=O)C2=CC(=C(O)C(=C2)O)[N+]([O-])=O,water,298,-4.17,mol/L
CC(C)OC(=O)C(O)(C1=CC=C(Cl)C=C1)C2=CC=C(Cl)C=C2,water,298,-5.35,mol/L
CC1=C(C)C(=NO1)N[S](=O)(=O)C2=CC=C(N)C=C2,water,298,-2.19,mol/L
CCCC1=C2CCCCC2=CC3=C1OC(=CC3=O)C(O)=O,water,298,-1.9,mol/L
OCN1C(=O)NC(C1=O)(C2=CC=CC=C2)C3=CC=CC=C3,water,298,-3.3,mol/L
CCCCCCOC(=O)[N]1C=NC2=C1C(=O)N(C)C(=O)N2C,water,298,-3.0,mol/L
ClC1=CC=CC=C1C2=C(Cl)C(=CC(=C2Cl)Cl)Cl,water,298,-7.4,mol/L
ClC1=CC=C(OC2=CC(=C(Cl)C(=C2)Cl)Cl)C=C1Cl,water,298,-8.25,mol/L
CC12CCC3C(CCC4=CC(=O)CCC34)C1CCC2(OC(=O)C5=CC=CC=C5)C#C,water,298,-7.75,mol/L
ClC1=CC=C(OC2=C(Cl)C=C(Cl)C(=C2)Cl)C=C1Cl,water,298,-7.83,mol/L
CC1CC2C3CCC(O)(C(=O)COC(=O)CCC(O)=O)C3(C)CC(O)C2C4(C)C=CC(=O)C=C14,water,298,-4.2,mol/L
ClC1=CC=C(OC2=CC(=C(Cl)C(=C2)Cl)Cl)C(=C1)Cl,water,298,-7.89,mol/L
O=C1NC=NC2=C1C=N[N]2C(=O)C3=CC=CC=C3,water,298,-4.23,mol/L
ClC1=CC=C(C=C1)C(C2=C(Cl)C=CC=C2)C(Cl)(Cl)Cl,water,298,-7.13,mol/L
ClC1=CC(=CC(=C1)Cl)OC2=C(Cl)C=C(Cl)C(=C2)Cl,water,298,-8.06,mol/L
ClC1=CC(=C(Cl)C(=C1)Cl)OC2=CC=C(Cl)C(=C2)Cl,water,298,-7.83,mol/L
ClC1=CC=C(OC2=C(Cl)C=C(Cl)C(=C2)Cl)C(=C1)Cl,water,298,-7.61,mol/L
ClC1=CC(=CC(=C1)Cl)OC2=C(Cl)C(=C(Cl)C=C2)Cl,water,298,-7.86,mol/L
ClC1=CC=C(OC2=C(Cl)C(=C(Cl)C(=C2)Cl)Cl)C=C1,water,298,-8.06,mol/L
ClC1=CC(=C(OC2=CC=C(Cl)C(=C2)Cl)C(=C1)Cl)Cl,water,298,-7.62,mol/L
CC(C)(C)C(O)C(CC1=CC=C(Cl)C=C1Cl)[N]2C=NC=N2,water,298,-4.56,mol/L
NC1=CC=C(C=C1)[S](=O)(=O)NC2=NC(=O)NC=C2,water,298,-3.55,mol/L
ClC1=CC=C(OC2=C(Cl)C(=C(Cl)C=C2)Cl)C(=C1)Cl,water,298,-7.44,mol/L
ClC1=CC=C(Cl)C(=C1)OC2=C(Cl)C=C(Cl)C(=C2)Cl,water,298,-7.56,mol/L
ClC1=CC=C(OC2=C(Cl)C(=CC(=C2)Cl)Cl)C(=C1)Cl,water,298,-7.64,mol/L
ClC1=CC=C(OC2=C(Cl)C(=CC=C2Cl)Cl)C=C1Cl,water,298,-7.35,mol/L
ClC1=CC=C(OC2=C(Cl)C(=C(Cl)C=C2Cl)Cl)C=C1,water,298,-7.77,mol/L
CCCCCCCC(=O)OC[N]1C=NC2=C1C(=O)N(C)C(=O)N2C,water,298,-3.45,mol/L
ClC1=CC=C(OC2=C(Cl)C=C(Cl)C=C2Cl)C(=C1)Cl,water,298,-7.33,mol/L
ClC1=C(Cl)C(=CC=C1)OC2=C(Cl)C=C(Cl)C(=C2)Cl,water,298,-7.48,mol/L
ClC1=CC=C(Cl)C(=C1)OC2=C(Cl)C(=C(Cl)C=C2)Cl,water,298,-7.7,mol/L
NC(=N)C1=CC(=CC=C1)NC(=O)NC2=CC(=CC=C2)C(N)=N,water,298,-1.77,mol/L
ClC1=C(Cl)C(=CC=C1)OC2=C(Cl)C(=C(Cl)C=C2)Cl,water,298,-7.38,mol/L
ClC1=CC=C(OC2=C(Cl)C(=CC(=C2Cl)Cl)Cl)C=C1,water,298,-7.76,mol/L
ClC1=CC=C(C=C1)N2N=NC3C4CC(C5N=NC45)C23,water,298,-4.87,mol/L
ClC1=CC=C(OC2=C(Cl)C(=CC=C2Cl)Cl)C(=C1)Cl,water,298,-7.24,mol/L
ClC1=CC=CC(=C1OC2=C(Cl)C=C(Cl)C(=C2)Cl)Cl,water,298,-7.12,mol/L
ClC1=C(Cl)C(=C(OC2=C(Cl)C=CC=C2Cl)C=C1)Cl,water,298,-7.23,mol/L
COC1=CC=C2C=C(C=CC2=C1)C(C)C(=O)OCCOC(=O)CN,water,298,-1.98,mol/L
CN(C)[S](=O)(=O)NC1=NN=C(S1)[S](N)(=O)=O,water,298,-2.68,mol/L
ClC1=C(Cl)C(=C(OC2=CC=CC=C2)C(=C1Cl)Cl)Cl,water,298,-7.94,mol/L
CCC(=O)OCSC1=NC=NC2=C1N=C[N]2COC(=O)CC,water,298,-2.78,mol/L
CC1=CSC(=N1)N[S](=O)(=O)C2=CC=C(N)C=C2,water,298,-3.49,mol/L
CC(OC1=CC=C(OC2=C(Cl)C=C(Cl)C=C2)C=C1)C(O)=O,water,298,-5.04,mol/L
OC(=O)C1=CC(=NC2=C1C=CC=C2)C3=CC=CC=C3,water,298,-3.19,mol/L
CCOCCC1=C(C)C(=C(OCCNC2=NC=NC(=C2Cl)CC)C=C1)C,water,298,-5.24,mol/L
CC(C(O)=O)C1=CC2=C(C=C1)C3=C([NH]2)C=CC(=C3)Cl,water,298,-4.7,mol/L
OC1=C(O)C2=C(C=C1)C(=O)C3=C(C=CC=C3)C2=O,water,298,-5.6,mol/L
C[S](=O)(=O)N(SC(Cl)(Cl)C(F)(Cl)Cl)C1=CC=CC=C1,water,298,-5.15,mol/L
COC1=CC=C2C=C(C=CC2=C1)C(C)C(=O)OC(C)OC(=O)CN,water,298,-2.44,mol/L
OC1=CC=CC2=C1C(=O)C3=C(C=CC=C3O)C2=O,water,298,-5.19,mol/L
CN1C=CC(=NC1=O)N[S](=O)(=O)C2=CC=C(N)C=C2,water,298,-2.36,mol/L
CCCOCC(=NC1=CC=C(Cl)C=C1C(F)(F)F)[N]2C=CN=C2,water,298,-1.44,mol/L
C[S](=O)(=O)C1=CC(=C(C=C1)C(=O)C2C(=O)CCCC2=O)Cl,water,298,-3.3,mol/L
CC(=O)NC1=CC=C(C=C1)C(=O)NC2=CC=C(OC(C)=O)C=C2,water,298,-4.41,mol/L
CN1C(=O)N(C)C2=C([NH]C(=N2)C3=CC=CC=C3)C1=O,water,298,-5.0,mol/L
CCCN1C(=O)N(CCC)C2=C([NH]C(=N2)C(C3CC3)C4CC4)C1=O,water,298,-4.59,mol/L
CCCC1=C2OC(=CC(=O)C2=C(O)C3=C1CCCC3)C(O)=O,water,298,-2.68,mol/L
CC1(C)SC2C(NC(=O)C(N)C3=CC=CC=C3)C(=O)N2C1C(O)=O,water,298,-1.99,mol/L
CC(C)C1(O)CCN2CC3C4=C(CCC5=C3C(=CC=C5)C2C1)C=CC=C4,water,298,-3.81,mol/L
CC1C\C=C\C=C\C=C\C=C\C(CC2OC(O)(CC(O)CC3OC3/C=C/C(=O)O1)CC(O)C2C([O-])=O)OC4OC(C)C(O)C([NH3+])C4O,water,298,-2.21,mol/L
CCN1C=C(C(O)=O)C(=O)C2=C1C=C(N3CCNCC3)C(=C2)F,water,298,-2.76,mol/L
CCCC(=O)OCSC1=NC=NC2=C1N=C[N]2COC(=O)CCC,water,298,-3.71,mol/L
CC1=C(N2C(SC1)C(NC(=O)C(N)C3=CC=CC=C3)C2=O)C(O)=O,water,298,-1.58,mol/L
CC(=O)NC1=CC=C(C=C1)[S](=O)(=O)NC2=NC=CC=N2,water,298,-3.59,mol/L
OC1=C(C=C(Cl)C=C1)C(=O)NC2=C(Cl)C=C(C=C2)[N+]([O-])=O,water,298,-6.19,mol/L
CCCN1C(=O)N(CCC)C2=C([NH]C(=N2)C3CCC(=O)C3)C1=O,water,298,-3.16,mol/L
ClC1=C(Cl)C(=C(OC2=CC(=C(Cl)C(=C2)Cl)Cl)C=C1)Cl,water,298,-8.49,mol/L
CC(C)C1(C)N=C(NC1=O)C2=NC3=C(C=CC=C3)C=C2C(O)=O,water,298,-3.72,mol/L
CC(=O)OCN1C=C(F)C(=O)N(C1=O)C(=O)C2=CC=CC=C2,water,298,-3.34,mol/L
CC1=NC=C([N]1CCOC(=O)C2=CC=C(CN3CCOCC3)C=C2)[N+]([O-])=O,water,298,-2.89,mol/L
NC1=CC=C(C=C1)[S](=O)(=O)NC2=CC=C(Cl)C(=C2)Cl,water,298,-4.94,mol/L
COC1=C(N[S](=O)(=O)C2=CC=C(N)C=C2)C=C(N)C=C1,water,298,-5.08,mol/L
CCN1C=C(C(O)=O)C(=O)C2=C1N=C(N3CCNCC3)C(=C2)F,water,298,-2.92,mol/L
CN(C)[S](=O)(=O)N=C1SC(=NN1C)[S](N)(=O)=O,water,298,-2.7,mol/L
ClC1=CC(=C(Cl)C(=C1)Cl)OC2=CC(=C(Cl)C=C2Cl)Cl,water,298,-8.41,mol/L
CCN(C(=O)OC1=CC=CC(=C1)NC(=O)OC(C)C)C2=CC=CC=C2,water,298,-5.06,mol/L
ClC1=CC(=C(Cl)C(=C1)OC2=C(Cl)C(=C(Cl)C=C2)Cl)Cl,water,298,-8.55,mol/L
CC(OC1=CC2=CC=CC=C2C=C1)C(=O)NC3=CC=CC=C3,water,298,-5.59,mol/L
ClC1=CC=C(OC2=C(Cl)C(=CC(=C2Cl)Cl)Cl)C=C1Cl,water,298,-8.3,mol/L
ClC1=CC(=C(OC2=C(Cl)C(=C(Cl)C=C2Cl)Cl)C=C1)Cl,water,298,-8.47,mol/L
CCOC(=O)C1=CN=C(N[S](=O)(=O)C2=CC=CC=C2)C=C1,water,298,-4.24,mol/L
CC(=O)OC1=CC=C(CC(NC(=O)C2=CC=CC=C2)C(N)=O)C=C1,water,298,-3.89,mol/L
ClC1=CC=C(Cl)C(=C1Cl)OC2=C(Cl)C=C(Cl)C(=C2)Cl,water,298,-7.88,mol/L
COC1=C2OC=CC2=C(OC)C3=C1OC(=CC3=O)C,water,298,-3.12,mol/L
CN(CC(=O)NCCC(=O)NC1=NN=C(S1)[S](N)(=O)=O)C(N)=N,water,298,-1.13,mol/L
CN1C(=O)N(C)C2=C([NH]C(=N2)\C=C\C3=CC=CC=C3)C1=O,water,298,-6.66,mol/L
ClC1=CC(=C(OC2=C(Cl)C(=CC(=C2Cl)Cl)Cl)C=C1)Cl,water,298,-8.42,mol/L
ClC1=C(Cl)C(=C(OC2=C(Cl)C=CC(=C2Cl)Cl)C=C1)Cl,water,298,-7.96,mol/L
CCC(CC1=C(I)C(=C(I)C=C1I)N)C(O)=O,water,298,-4.58,mol/L
CN1N=C(SC1=N[S](=O)(=O)C(F)(F)F)[S](N)(=O)=O,water,298,-1.16,mol/L
CCCN(CCC)C1=C(C=C(C=C1[N+]([O-])=O)[S](C)(=O)=O)[N+]([O-])=O,water,298,-5.76,mol/L
CC1=CC=CC2=C1C3=CC4=CC=CC=C4C=C3C=C2,water,298,-6.64,mol/L
CN1C(=O)N(C)C2=C([N](C)C(=N2)C3=CC=CC=C3)C1=O,water,298,-3.31,mol/L
CN(CC1=CC=C(OCCN2CCOCC2)C=C1)C(=O)C3=CC=C(O3)[N+]([O-])=O,water,298,-2.29,mol/L
CC1=C2C=CC3=C(C=CC=C3)C2=CC4=CC=CC=C14,water,298,-6.64,mol/L
NC1=CC=C(C=C1)[S](=O)(=O)NC2=NC(=O)N(CC=C)C=C2,water,298,-3.11,mol/L
CC1=C2C(=CC3=CC=CC=C13)C=CC4=C2C=CC=C4,water,298,-6.57,mol/L
CC(=O)NC1=CC=C(C=C1)[S](=O)(=O)NC2=NC=CS2,water,298,-3.43,mol/L
CC(C)N1C=CC(=NC1=O)N[S](=O)(=O)C2=CC=C(N)C=C2,water,298,-3.17,mol/L
CC1=CC2=C(C=CC3=CC=CC=C23)C4=C1C=CC=C4,water,298,-6.57,mol/L
CC1=CC2=C(C=CC=C2)C3=C1C4=CC=CC=C4C=C3,water,298,-6.59,mol/L
OC1=C(O)C2=C(C=C1)C3=C4C=C(O)C(=O)C=C4CC3(O)CO2,water,298,-2.7,mol/L
CCNC(=O)OC1=C(O)C(=CC(=C1)\C=C(C#N)/C(=O)N(CC)CC)[N+]([O-])=O,water,298,-3.18,mol/L
CCCCCCCCSC(=O)OC1=C(N=NC(=C1)Cl)C2=CC=CC=C2,water,298,-5.4,mol/L
CCCCC(=O)OCSC1=NC=NC2=C1N=C[N]2COC(=O)CCCC,water,298,-4.33,mol/L
CN(C)[P](=O)(N(C)C)[N]1N=C(N=C1N)C2=CC=CC=C2,water,298,-3.07,mol/L
COC1=CC=C(N[S](=O)(=O)C2=CC=C(C=C2)[N+]([O-])=O)C=C1,water,298,-4.64,mol/L
CC1(C)SC2C(NC(=O)C(N)C3=CC=C(O)C=C3)C(=O)N2C1C(O)=O,water,298,-2.17,mol/L
CCCN1C(=O)N(CCC)C2=C([NH]C(=N2)[C]34CC5[CH2]C(C[CH]3C5)C4)C1=O,water,298,-5.85,mol/L
CN1C=C(C(N)=O)C(=C(F)C1=O)NC2=C(F)C=C(Br)C=C2,water,298,-4.14,mol/L
COC1=CC=C2C=C(C=CC2=C1)C(C)C(=O)OCCOC(=O)C(N)CC(C)C,water,298,-3.82,mol/L
CCCCN1C=CC(=NC1=O)N[S](=O)(=O)C2=CC=C(N)C=C2,water,298,-3.09,mol/L
CCC(C)C(N)C(=O)OCCOC(=O)C(C)C1=CC2=CC=C(OC)C=C2C=C1,water,298,-3.82,mol/L
FC1=C(C2SCC3=NC4=C(C=CC=C4)[N]23)C(=CC=C1)F,water,298,-3.76,mol/L
CCN(CC)C(=O)CCC(=O)OC[N]1C=NC2=C1C(=O)N(C)C(=O)N2C,water,298,-1.14,mol/L
CN1C2=CC=CC=C2SC3=C1C=C(CC(O)=O)C=C3,water,298,-3.94,mol/L
CSC(=O)C1=C(CC(C)C)C(=C(N=C1C(F)F)C(F)(F)F)C(=O)SC,water,298,-5.46,mol/L
CC(C)CN1C=CC(=NC1=O)N[S](=O)(=O)C2=CC=C(N)C=C2,water,298,-3.11,mol/L
CCCC(=O)OCN1C=C(F)C(=O)N(C1=O)C(=O)C2=CC=CC=C2,water,298,-3.73,mol/L
CNN1C=C(C(O)=O)C(=O)C2=C1C=C(N3CCN(C)CC3)C(=C2)F,water,298,-3.73,mol/L
ClC1=C(Cl)C(=C(C(=C1)Cl)C2=CC(=C(Cl)C(=C2)Cl)Cl)Cl,water,298,-9.1,mol/L
CC(C)(C)C(=O)OC1=CC2=C(C=C1)N=C(S2)[S](N)(=O)=O,water,298,-3.73,mol/L
CCC(C)N1C=CC(=NC1=O)N[S](=O)(=O)C2=CC=C(N)C=C2,water,298,-2.76,mol/L
ClC1=CC=C(C(=C1Cl)Cl)C2=C(Cl)C(=C(Cl)C(=C2)Cl)Cl,water,298,-8.06,mol/L
COC1=CC2=CC=C(C=C2C=C1)C(C)C(=O)OCCOC(=O)CN3CCOCC3,water,298,-4.3,mol/L
ClC1=CC=C(C=C1Cl)C2=C(Cl)C(=C(Cl)C(=C2Cl)Cl)Cl,water,298,-8.9,mol/L
ClC1=CC(=C(Cl)C(=C1Cl)C2=CC(=C(Cl)C(=C2)Cl)Cl)Cl,water,298,-9.1,mol/L
CCCOC(=O)N1C2CN3C4=C(C(COC(N)=O)C3(OC)C12)C(=O)C(=C(C)C4=O)N,water,298,-3.48,mol/L
ClC1=CC(=C(Cl)C(=C1)C2=C(Cl)C(=C(Cl)C(=C2)Cl)Cl)Cl,water,298,-9.1,mol/L
ClC1=CC(=C(C(=C1)Cl)C2=CC(=C(Cl)C(=C2Cl)Cl)Cl)Cl,water,298,-8.68,mol/L
ClC1=CC(=CC(=C1)Cl)C2=C(Cl)C(=C(Cl)C(=C2Cl)Cl)Cl,water,298,-9.1,mol/L
CN1C(=O)N(C)C2=C([N](C)C(=N2)\C=C\C3=CC=CC=C3)C1=O,water,298,-5.55,mol/L
ClC1=CC(=C(C=C1)C2=C(Cl)C(=C(Cl)C(=C2Cl)Cl)Cl)Cl,water,298,-8.97,mol/L
ClC1=CC(=C(Cl)C(=C1)Cl)C2=C(Cl)C=C(Cl)C(=C2Cl)Cl,water,298,-8.68,mol/L
CCC1=C2C=CC3=C(C=CC=C3)C2=CC4=C1C=CC=C4,water,298,-6.76,mol/L
ClC1=C(Cl)C(=C(C=C1)C2=C(Cl)C(=CC(=C2Cl)Cl)Cl)Cl,water,298,-8.42,mol/L
CCC(C)C(N)C(=O)OCCCCOC(=O)C(C)C1=CC2=CC=C(OC)C=C2C=C1,water,298,-4.52,mol/L
ClC1=CC=C(Cl)C(=C1Cl)C2=CC(=C(Cl)C(=C2Cl)Cl)Cl,water,298,-8.59,mol/L
C[S](=O)(=O)C1=CC=C(C=C1)C2=C(C(=O)OC2)C3=CC=CC=C3,water,298,-5.59,mol/L
COC1=CC2=C(C=C1OC)C34CCN5CC6=CCOC7CC(=O)N2C3C7C6CC45,water,298,-2.79,mol/L
ClC1=CC(=C(Cl)C(=C1)C2=C(Cl)C(=CC(=C2Cl)Cl)Cl)Cl,water,298,-8.59,mol/L
ClC1=CC(=C(C(=C1)Cl)C2=C(Cl)C(=CC(=C2Cl)Cl)Cl)Cl,water,298,-8.49,mol/L
OC(=O)C1=CC=CC=C1C(=O)NC2=C3C=CC=CC3=CC=C2,water,298,-3.16,mol/L
ClC1=C(Cl)C(=C(Cl)C=C1)C2=C(Cl)C(=C(Cl)C=C2Cl)Cl,water,298,-8.15,mol/L
ClC1=CC(=CC(=C1Cl)Cl)OC2=C(Cl)C(=C(Cl)C(=C2)Cl)Cl,water,298,-9.54,mol/L
ClC1=C(Cl)C(=C(Cl)C=C1)C2=C(Cl)C(=CC(=C2Cl)Cl)Cl,water,298,-7.94,mol/L
C1CC2=CC3=CC4=C(C=CC=C4)C=C3C5=C2C1=CC=C5,water,298,-2.97,mol/L
CC(C)OC1=CC=C(C=C1)C(=O)N[S](=O)(=O)C2=CC=C(N)C=C2,water,298,-4.3,mol/L
CSC1=CC=C2OC3=C(C=C(C=C3)C(O)=O)C(=O)C2=C1,water,298,-5.32,mol/L
CC1=C(C)C2=C(C=CC3=C2C=CC=C3)C4=CC=CC=C14,water,298,-7.01,mol/L
CCN1C=C(C(O)=O)C(=O)C2=C1C(=C(N3CCNC(C)C3)C(=C2)F)F,water,298,-2.33,mol/L
CCN1CCN(CC1)C2=CC3=C(C=C2F)C(=O)C(=CN3C4CC4)C(O)=O,water,298,-3.18,mol/L
OC(=O)CCC1=NC(=C(O1)C2=CC=CC=C2)C3=CC=CC=C3,water,298,-2.24,mol/L
OC(=O)C1=CC(=C(O)C(=C1)O)OC(=O)C2=CC(=C(O)C(=C2)O)O,water,298,-2.79,mol/L
C1CC2=C3C=CC4=C(C=CC=C4)C3=CC5=CC=CC1=C25,water,298,-7.86,mol/L
CC(=O)NC1=C(I)C=C(I)C(=C1I)C(O)=O,water,298,-2.64,mol/L
OC1=CC=C(C=C1)C(C2=CC=C(O)C=C2)=C3C=CC(=O)C=C3,water,298,-2.38,mol/L
ClC1=CC=C(OC2=C(Cl)C(=C(Cl)C(=C2Cl)Cl)Cl)C(=C1)Cl,water,298,-9.64,mol/L
CCN(CC)C(=O)NC1CN(C)C2CC3=C(Br)[NH]C4=C3C(=CC=C4)C2=C1,water,298,-4.38,mol/L
O=C1OC(C2=CC=CC=C2)(C3=CC=CC=C3)C4=C1C=CC=C4,water,298,-3.85,mol/L
CN1CC2CC1CN2C3=CC4=C(C=C3F)C(=O)C(=CN4C5CC5)C(O)=O,water,298,-2.9,mol/L
OC1=CC2=C(C(=C1)O)C(=O)C=C(O2)C3=CC(=C(O)C=C3)O,water,298,-3.61,mol/L
CCCC1=C(O)N2N(C1=O)C3=CC(=CC=C3N=C2N(C)C)C,water,298,-3.63,mol/L
CCCCC1=CC2=C(C=C1)C=C3C=CC4=C(C=CC=C4)C3=C2,water,298,-7.52,mol/L
COC1=C(N2C(SC1)C(NC(=O)C(N)C3=CCC=CC3)C2=O)C(O)=O,water,298,-1.89,mol/L
CCOC(=O)C(C)N(C(=O)C1=CC=CC=C1)C2=CC(=C(Cl)C=C2)Cl,water,298,-4.26,mol/L
CNCC(=O)NC1=C(C=C(C(=C1)Cl)[S](N)(=O)=O)[S](N)(=O)=O,water,298,-1.27,mol/L
CC1=C2C=CC3=C(C=CC=C3)C2=CC4=CC=C(Cl)C=C14,water,298,-7.44,mol/L
CC(C)OC(=O)CC(C(=O)OC(C)C)[S](=O)(=O)C1=CC=C(C=C1)[N+]([O-])=O,water,298,-4.29,mol/L
CN1CCN(CC1)C2=C(F)C3=C(C=C2F)C(=O)C(=CN3CCF)C(O)=O,water,298,-2.73,mol/L
CC1CCC2=C(N3CCC(O)CC3)C(=CC4=C2N1C=C(C(O)=O)C4=O)F,water,298,-3.78,mol/L
CCN1C=CC(=NC1=O)N[S](=O)(=O)C2=CC=C(NC(C)=O)C=C2,water,298,-2.71,mol/L
CCC1=NN=C(N[S](=O)(=O)C2=CC=C(NC(C)=O)C=C2)S1,water,298,-3.4,mol/L
CC(OC1=CC=C(OC2=NC3=C(O2)C=C(Cl)C=C3)C=C1)C(O)=O,water,298,-3.09,mol/L
CONC(=O)C1=CN(C)C(=O)C(=C1NC2=CC=C(Br)C=C2F)C,water,298,-3.28,mol/L
ClC1=C(Cl)C(=CC(=C1)C2=C(Cl)C(=C(Cl)C(=C2Cl)Cl)Cl)Cl,water,298,-9.7,mol/L
CCO[P](=O)(OCC)OC1=CC2=C(C=C1)C(=C(Cl)C(=O)O2)C,water,298,-3.18,mol/L
ClC1=CC(=C(C(=C1Cl)Cl)C2=C(Cl)C(=C(Cl)C(=C2)Cl)Cl)Cl,water,298,-9.42,mol/L
ClC1=C(Cl)C=C(C(=C1)Cl)C2=C(Cl)C(=C(Cl)C(=C2Cl)Cl)Cl,water,298,-9.5,mol/L
ClC1=CC=C(C(=C1Cl)Cl)C2=C(Cl)C(=C(Cl)C(=C2Cl)Cl)Cl,water,298,-9.29,mol/L
ClC1=CC(=C(Cl)C(=C1Cl)Cl)C2=C(Cl)C(=CC(=C2Cl)Cl)Cl,water,298,-9.29,mol/L
ClC1=CC(=C(Cl)C(=C1)Cl)C2=C(Cl)C(=C(Cl)C(=C2Cl)Cl)Cl,water,298,-9.42,mol/L
ClC1=CC(=C(C(=C1Cl)Cl)C2=C(Cl)C(=C(Cl)C=C2Cl)Cl)Cl,water,298,-9.1,mol/L
ClC1=CC(=C(C(=C1)Cl)C2=C(Cl)C(=C(Cl)C(=C2Cl)Cl)Cl)Cl,water,298,-9.48,mol/L
ClC1=C(Cl)C(=C(C(=C1)Cl)C2=C(Cl)C(=CC(=C2Cl)Cl)Cl)Cl,water,298,-9.2,mol/L
CN(C)CC1=CC=C(C=C1)C(=O)OCCOC[N]2C=NC3=C2N=C(N)NC3=O,water,298,-2.47,mol/L
OCC(CO)C(=O)OCN1C(=O)NC(C1=O)(C2=CC=CC=C2)C3=CC=CC=C3,water,298,-2.21,mol/L
ClC1=C(Cl)C(=C(Cl)C=C1)C2=C(Cl)C(=C(Cl)C(=C2Cl)Cl)Cl,water,298,-9.1,mol/L
CC(C(=O)OCC(=O)N(C)CC(N)=O)C1=CC(=CC=C1)C(=O)C2=CC=CC=C2,water,298,-2.42,mol/L
CCCCCC1=C2C=CC3=C(C=CC=C3)C2=CC4=C1C=CC=C4,water,298,-8.57,mol/L
ClC1=CC(=C(Cl)C(=C1Cl)Cl)OC2=CC(=C(Cl)C(=C2Cl)Cl)Cl,water,298,-10.1,mol/L
CCONC(=O)C1=CN(C)C(=O)C(=C1NC2=C(F)C=C(Br)C=C2)C,water,298,-3.82,mol/L
CCCCCCCC(=O)OCN1C(=O)NC(C1=O)(C2=CC=CC=C2)C3=CC=CC=C3,water,298,-6.52,mol/L
OC1=CC=C(C=C1)C(C2=CC=C(O)C=C2)C3=CC=CC=C3C(O)=O,water,298,-3.26,mol/L
NC1=CC=C(C=C1)[S](=O)(=O)NC2=CC=C(C=C2Br)[N+]([O-])=O,water,298,-4.78,mol/L
C[S](=O)C1=CC=C2OC3=C(C=C(C=C3)C(O)=O)C(=O)C2=C1,water,298,-5.02,mol/L
CNC1=C(C(=O)C(O1)C2=CC=CC=C2)C3=CC(=CC=C3)C(F)(F)F,water,298,-3.98,mol/L
CSC1=CC=C(C=C1)C(=O)C2=CC(=CC3=C2OC=C3)CC(O)=O,water,298,-5.51,mol/L
COC1=NC(=NC(=N1)NC(=O)N[S](=O)(=O)C2=CC=CC=C2Cl)C,water,298,-1.71,mol/L
N[S](=O)(=O)C1=NN=C(N[S](=O)(=O)C2=CC=CC=C2)S1,water,298,-2.9,mol/L
C1=CC=C2C(=C1)C=CC3=C2C4=CC=CC5=C4C3=CC=C5,water,298,-8.0,mol/L
CCONC(=O)C1=CN(C)C(=O)C(=C1NC2=CC=C(Br)C=C2F)F,water,298,-4.19,mol/L
ClC1=CC2=C(C(=C1Cl)Cl)C3=C(O2)C(=C(Cl)C(=C3)Cl)Cl,water,298,-10.3,mol/L
C1=CC2=CC3=C4C(=C2C=C1)C=CC=C4C5=CC=CC=C35,water,298,-8.22,mol/L
ClC1=CC2=C(C=C1Cl)C3=C(O2)C(=C(Cl)C(=C3Cl)Cl)Cl,water,298,-10.7,mol/L
OC1=CC2=C(C(=C1)O)C(=O)C(=C(O2)C3=CC=C(O)C(=C3)O)O,water,298,-1.99,mol/L
OC1=CC=C(C(=C1)O)C2=C(O)C(=O)C3=C(O2)C=C(O)C=C3O,water,298,-3.08,mol/L
ClC1=CC(=C(COC(C[N]2C=CN=C2)C3=CC=C(Cl)C=C3Cl)C=C1)Cl,water,298,-5.08,mol/L
CN1C(=O)N(C)C2=C(N=C3C(=O)N(C)C(=O)N(C)C3=N2)C1=O,water,298,-3.31,mol/L
CC(=O)CCC1C(=O)N(N(C1=O)C2=CC=CC=C2)C3=CC=CC=C3,water,298,-3.27,mol/L
N[S](=O)(=O)C1=NN=C(N[S](=O)(=O)CC2=CC=CC=C2)S1,water,298,-2.7,mol/L
COC(=O)\C(=C\C1=CC=CC=C1)[S](=O)(=O)C2=CC=C(C=C2)[N+]([O-])=O,water,298,-4.57,mol/L
CC1(O)CC(C2=CC=C(Cl)C=C2)C3=C(O1)C4=C(OC3=O)C=CC=C4,water,298,-5.84,mol/L
CC1=C(C2=CC=C(C=C2)[S](N)(=O)=O)C(=NO1)C3=CC=CC=C3,water,298,-4.52,mol/L
CN1C=C(C(=O)NOCCO)C(=C(C)C1=O)NC2=C(F)C=C(Br)C=C2,water,298,-2.96,mol/L
NCC(=O)NCC(=O)OCCOC1=CC2=C(C=C1)N=C(S2)[S](N)(=O)=O,water,298,-1.3,mol/L
CC1=CC=C(C=C1)[S](=O)(=O)NC2=NN=C(S2)[S](N)(=O)=O,water,298,-1.22,mol/L
CCCCNC1=C(OC2=CC=CC=C2)C(=CC(=C1)C(O)=O)[S](N)(=O)=O,water,298,-3.56,mol/L
COC1=CC=C2C(OC(=O)C2=C1OC)C3N(C)CCC4=C3C=C5OCOC5=C4,water,298,-4.11,mol/L
CC1CN(CC(C)N1)C2=C(F)C3=C(C(=C2F)N)C(=O)C(=CN3C4CC4)C(O)=O,water,298,-3.37,mol/L
OCC(O)COC(=O)C1=C(NC2=C3C=CC(=CC3=NC=C2)Cl)C=CC=C1,water,298,-4.54,mol/L
NC1=CC=C(C=C1)[S](=O)(=O)NC2=NN=C(S2)[S](N)(=O)=O,water,298,-1.5,mol/L
CC1NC2=CC(=C(C=C2C(=O)N1C3=CC=CC=C3C)[S](N)(=O)=O)Cl,water,298,-3.71,mol/L
CCC(/C1=CC=CC=C1)=C(\C2=CC=CC=C2)C3=CC=C(OCCN(C)C)C=C3,water,298,-8.49,mol/L
CC1=C2C=CC3=C4C(=CC=C3)C=CC(=C24)C5=C1C=CC=C5,water,298,-8.52,mol/L
NC1=CC=CC(=C1)[S](=O)(=O)NC2=NN=C(S2)[S](N)(=O)=O,water,298,-1.54,mol/L
CC1=NC=C2CN=C(C3=C(F)C=CC=C3)C4=C(C=CC(=C4)Cl)[N]12,water,298,-4.13,mol/L
[NH]1C2=C(C3=C(C=CC=C3)C=C2)C4=C1C=CC5=C4C=CC=C5,water,298,-6.62,mol/L
COC(=O)C1=C(C=CC=C1)[S](=O)(=O)NC(=O)NC2=NC(=CC(=N2)C)C,water,298,-3.08,mol/L
COC1=CC2=C(C=C1)[N](C(=C2CC(O)=O)C)C(=O)\C=C\C3=CC=CC=C3,water,298,-5.54,mol/L
CCCN(CCC)C1=C(C=C(C=C1[N+]([O-])=O)[S](=O)(=O)N=[S](C)C)[N+]([O-])=O,water,298,-4.86,mol/L
CC1(C)SC2C(NC(=O)C(N)C3=CC=C(N)C=C3)C(=O)N2C1C4=NN=N[NH]4,water,298,-1.57,mol/L
N[S](=O)(=O)C1=NN=C(NC(=O)C2=C(F)C(=C(F)C(=C2F)F)F)S1,water,298,-1.37,mol/L
FC(F)(F)C1=NC2=C(C=C(Cl)C(=C2)Cl)[N]1C(=O)OC3=CC=CC=C3,water,298,-4.46,mol/L
CCCN(CCC)CC1=CC=CC(=C1)C(=O)OCCOC[N]2C=NC3=C2N=C(N)NC3=O,water,298,-0.35,mol/L
N[S](=O)(=O)C1=NN=C(N[S](=O)(=O)C2=CC=C(Cl)C=C2)S1,water,298,-2.01,mol/L
N[S](=O)(=O)C1=CC=C(CNC(=S)NC(C(O)C2=CC=CC=C2)C(O)=O)C=C1,water,298,-1.29,mol/L
CC1=CC(=CC=C1N[S](=O)(=O)C(F)(F)F)[S](=O)(=O)C2=CC=CC=C2,water,298,-3.8,mol/L
CN1N=C(SC1=N[S](=O)(=O)CC2=CC=CC=C2)[S](N)(=O)=O,water,298,-2.48,mol/L
COC1=CC=C(C=C1)[S](=O)(=O)NC2=NN=C(S2)[S](N)(=O)=O,water,298,-2.25,mol/L
C1=CC2=C(C=C1)C3=C(C=C2)C=C4C=CC5=C(C=CC=C5)C4=C3,water,298,-7.37,mol/L
COC1=CC2=C(C=C1OC)C(=NC(=N2)N3CCN(CC3)C(=O)C4=CC=CO4)N,water,298,-5.09,mol/L
C1=CC2=C(C=C1)C3=CC4=C(N=C3C=C2)C5=C(C=CC=C5)C=C4,water,298,-6.24,mol/L
CN1N=C(SC1=N[S](=O)(=O)C2=CC=C(C)C=C2)[S](N)(=O)=O,water,298,-2.84,mol/L
OC(=O)C1=C(C(=O)NC2=CC=CC(=C2Cl)Cl)C(=C(Cl)C(=C1Cl)Cl)Cl,water,298,-4.51,mol/L
COC1=CC=C2C=C(C=CC2=C1)C(C)C(=O)OCCOC(=O)C(N)CC3=CC=CC=C3,water,298,-3.75,mol/L
O=C1NC=NC2=C1N=C(C3=CC=CC=C3)C(=N2)C4=CC=CC=C4,water,298,-3.18,mol/L
OCC1OC2OC3C(O)C(O)C(OC3CO)OC4C(O)C(O)C(OC4CO)OC5C(O)C(O)C(OC5CO)OC6C(O)C(O)C(OC6CO)OC7C(O)C(O)C(OC7CO)OC1C(O)C2O,water,298,-0.91,mol/L
NC1=CC=C(C=C1)[S](=O)(=O)NC2=NC(=O)N(CC3=CC=CC=C3)C=C2,water,298,-4.8,mol/L
CN1N=C(SC1=N[S](=O)(=O)C2=CC=C(F)C=C2)[S](N)(=O)=O,water,298,-2.03,mol/L
FC1=C(C=C2N(CC#C)C(=O)COC2=C1)N3C(=O)C4=C(CCCC4)C3=O,water,298,-5.3,mol/L
CCN(C1CC(C)[S](=O)(=O)C2=C1C=C(S2)[S](N)(=O)=O)C(=O)CNC,water,298,-1.21,mol/L
CN1N=C(SC1=N[S](=O)(=O)C2=CC=C(N)C=C2)[S](N)(=O)=O,water,298,-2.5,mol/L
CC12CCC3C(CCC4=CC(=O)CCC34)C1CCC2(OC(=O)C5=CC=C(C=C5)C6=CC=CC=C6)C#C,water,298,-8.11,mol/L
CN1N=C(SC1=N[S](=O)(=O)C2=CC=CC(=C2)N)[S](N)(=O)=O,water,298,-2.45,mol/L
CC1=CC(=C(C(=C1)C)[S](=O)(=O)NC2=NN=C(S2)[S](N)(=O)=O)C,water,298,-2.7,mol/L
CC1CC2=C(C=CC=C2)N1NC(=O)C3=CC(=C(Cl)C=C3)[S](N)(=O)=O,water,298,-3.79,mol/L
CC1C(NC(=O)C(=N\OC(C)(C)C(O)=O)/C2=CSC(=N2)N)C(=O)N1[S](O)(=O)=O,water,298,-1.64,mol/L
COC1=CC=C2C=C(C=CC2=C1)C(C)C(=O)OC(C)OC(=O)C(N)CC3=CC=CC=C3,water,298,-3.5,mol/L
N[S](=O)(=O)C1=NN=C(N[S](=O)(=O)C2=CC=C(Br)C=C2)S1,water,298,-2.13,mol/L
CN1N=C(SC1=N[S](=O)(=O)C2=CC=C(Cl)C=C2)[S](N)(=O)=O,water,298,-2.44,mol/L
CC(=O)N1CCN(CC1)C(=O)/C=C/C2=CC(=C(SC3=CC4=C(OCCO4)C=C3)C=C2)Cl,water,298,-2.05,mol/L
FC1=CC=C(NC(=O)C2=CC=CN=C2OC3=CC=CC(=C3)C(F)(F)F)C(=C1)F,water,298,-6.9,mol/L
COC1=CC2=C(C=C1OC)C(=NC=N2)N3CCN(CC3)C(=S)NCC4=CC=CO4,water,298,-5.63,mol/L
COC1=CC2=C(C=C1OC)C(=NC=N2)N3CCN(CC3)C(=O)NC4=CSC=C4,water,298,-5.3,mol/L
N[S](=O)(=O)C1=CC=C(NC2=NC(=NC=C2)NC(=O)C3=CC=CN=C3)C=C1,water,298,-1.27,mol/L
CC(=O)NC1=C(I)C(=C(I)C(=C1I)C(O)=O)NC(C)=O,water,298,-2.01,mol/L
CC12CCC3C(CCC4=CC(=O)CCC34)C1CCC2(OC(=O)C5=CC=C(OC6=CC=CC=C6)C=C5)C#C,water,298,-6.84,mol/L
COC1=CC=C(C=C1)[S](=O)(=O)N=C2SC(=NN2C)[S](N)(=O)=O,water,298,-2.76,mol/L
N[S](=O)(=O)C1=NN=C(N[S](=O)(=O)C2=CC=C(C=C2)[N+]([O-])=O)S1,water,298,-1.33,mol/L
NCC(=O)NCC(=O)NC1=C(Cl)C(=C(C=C1[S](N)(=O)=O)[S](N)(=O)=O)Cl,water,298,-1.23,mol/L
CN(C)C1C2CC3CC4=C(C=CC(=C4C(=O)C3=C(O)C2(O)C(=O)C(=C1O)C(N)=O)O)N(C)C,water,298,-0.94,mol/L
N[S](=O)(=O)C1=NN=C(N[S](=O)(=O)C2=CC(=CC=C2)[N+]([O-])=O)S1,water,298,-1.46,mol/L