Solute,Solvent,Temperature_K,Solubility,Units
O=C1NC(=O)C2(CCCCC2)C(=O)N1,water,298,-3.06,mol/L
CNC(C)C(O)C1=CC=CC=C1,water,298,-0.47,mol/L
OC(=O)CC1=CC=CC=C1,water,298,-0.88,mol/L
CC(C)(C)C1=CC=C(O)C=C1,water,298,-2.41,mol/L
CC1=CC=C(C=C1)C(O)=O,water,298,-2.53,mol/L
CC1=CC=CC(=C1)C(O)=O,water,298,-2.21,mol/L
CCC1(CC)C(=O)NC(=S)NC1=O,water,298,-2.28,mol/L
OC(=O)C1=CSC=C1,water,298,-1.47,mol/L
CC1=C(C=CC=C1)C(O)=O,water,298,-2.18,mol/L
CC(C)C1=C(O)C=C(C)C=C1,water,298,-2.18,mol/L
CCCCC1(CC)C(=O)NC(=O)NC1=O,water,298,-1.69,mol/L
CC(C)=CCC1(C)C(=O)NC(=O)NC1=O,water,298,-2.6,mol/L
NC(=O)OCC1=CC=CC=C1,water,298,-0.35,mol/L
COC1=NN(CS[P](=S)(OC)OC)C(=O)S1,water,298,-3.1,mol/L
OC1=CC=C(Br)C=C1,water,298,-1.0,mol/L
OC(=O)C1=CC=C(F)C=C1,water,298,-2.07,mol/L
OC1=CC(=CC=C1)Br,water,298,-0.88,mol/L
NNC(=O)C1=CC=NC=C1,water,298,-0.04,mol/L
CCC(C)C1(CC)C(=O)NC(=O)NC1=O,water,298,-2.39,mol/L
OC(=O)C1=C(F)C=CC=C1,water,298,-1.39,mol/L
NC1=CC=C(C=C1)C(O)=O,water,298,-1.37,mol/L
CC(C)C1(C(C)C)C(=O)NC(=O)NC1=O,water,298,-2.77,mol/L
CC(C)C1(CC=C)C(=O)NC(=O)NC1=O,water,298,-1.71,mol/L
C=CCC1(CC=C)C(=O)NC(=O)NC1=O,water,298,-2.08,mol/L
OC(=O)C1=CC=C(O)C=C1,water,298,-1.33,mol/L
NC1=C(C=CC=C1)C(O)=O,water,298,-1.52,mol/L
CC1=CC=C(C=C1)N=C=S,water,298,-4.72,mol/L
NC(=O)C1=C(O)C=CC=C1,water,298,-1.84,mol/L
OC(=O)C1=CC(=CC=C1)O,water,298,-1.24,mol/L
OC1=C(Cl)C=CC(=C1)Cl,water,298,-1.91,mol/L
CCCCCC1(CC)C(=O)NC(=O)NC1=O,water,298,-2.51,mol/L
ClC1=CC=C(Br)C=C1,water,298,-3.63,mol/L
NC1=CC(=CC=C1)[N+]([O-])=O,water,298,-2.19,mol/L
OC1=C(Cl)C=CC=C1Cl,water,298,-1.93,mol/L
OC(=O)C1=C(O)C=CC=C1,water,298,-1.8,mol/L
CCC1(CCC(C)C)C(=O)NC(=O)NC1=O,water,298,-2.47,mol/L
CCNC(=O)NC(=O)C(=N/OC)/C#N,water,298,-2.3,mol/L
OC1=CC=C(C=C1)[N+]([O-])=O,water,298,-0.94,mol/L
NC1=C(C=CC=C1)[N+]([O-])=O,water,298,-1.96,mol/L
OC(=O)/C=C/C1=CC=CC=C1,water,298,-2.55,mol/L
CC1=C(C)C(=C(C)C(=C1C)C)C,water,298,-5.23,mol/L
CC(=O)NC1=CC=C(C)C=C1,water,298,-1.96,mol/L
OC1=CC(=CC=C1)[N+]([O-])=O,water,298,-1.07,mol/L
CC(=O)NC1=CC(=CC=C1)C,water,298,-2.09,mol/L
CCCCCOC(=O)CCCNC(=O)NC1CCCCC1,water,298,-2.3,mol/L
CCC1(CC=C(C)C)C(=O)NC(=O)NC1=O,water,298,-2.25,mol/L
CCCCCC(O)/C=C/C1C(O)CC(O)C1C\C=C\CCCC(O)=O,water,298,-2.33,mol/L
CN(C(C)=O)C1=CC=CC=C1,water,298,-0.75,mol/L
OC1=C(C=CC=C1)[N+]([O-])=O,water,298,-1.75,mol/L
CCCC(C)C1(CC)C(=O)NC(=O)NC1=O,water,298,-2.38,mol/L
O=C1NC(=S)NC(=O)C12CCCCC2,water,298,-3.46,mol/L
CCC(=O)C1=CC=C(N)C=C1,water,298,-2.64,mol/L
CC12CCC3C(CC=C4CC(O)CCC34C)C1CCC2=O,water,298,-3.66,mol/L
ClC1=CC(=CC(=C1)Cl)Cl,water,298,-4.64,mol/L
CC(C)CC1(CC=C)C(=O)NC(=O)NC1=O,water,298,-2.12,mol/L
CCCCCCC1(CC)C(=O)NC(=O)NC1=O,water,298,-3.05,mol/L
OC(=O)C1=CC=C(Cl)C=C1,water,298,-3.33,mol/L
ClC1=C(Cl)C(=CC=C1)Cl,water,298,-4.04,mol/L
O=C1NC(=O)C2(CCCCCCC2)C(=O)N1,water,298,-2.98,mol/L
CCCCCCCCCCNC(=O)N[C]12C[CH]3[CH2]C([CH2][CH](C3)C1)C2,water,298,-5.83,mol/L
CC(=O)NC1=CC=C(F)C=C1,water,298,-1.95,mol/L
CC/C=C(C)/C1(CC)C(=O)NC(=O)NC1=O,water,298,-2.31,mol/L
OC(=O)C1=CC(=CC=C1)Cl,water,298,-2.59,mol/L
[NH]1C=CC2=C1C=CC=C2,water,298,-1.21,mol/L
CCC(C)C1(CC=C)C(=O)NC(=O)NC1=O,water,298,-2.02,mol/L
OC(=O)COC1=CC=CC=C1,water,298,-0.96,mol/L
COC(=O)C1=CC=C(N)C=C1,water,298,-2.02,mol/L
OC(=O)C1=C(Cl)C=CC=C1,water,298,-2.06,mol/L
CC12CCC3C(CCC4CC(=O)CCC34C)C1CCC2O,water,298,-4.74,mol/L
CC(=O)NC1=CC=C(O)C=C1,water,298,-0.88,mol/L
COC(=O)C1=CC=C(O)C=C1,water,298,-1.78,mol/L
COC1=CC=C(C=C1)C(O)=O,water,298,-2.89,mol/L
CNC(=O)O/N=C(SC)/C(=O)N(C)C,water,298,0.11,mol/L
CC(=O)NC1=CC=CC(=C1)O,water,298,-1.06,mol/L
CCCCCCCC1(CC)C(=O)NC(=O)NC1=O,water,298,-3.43,mol/L
[O-][N+](=O)C1=C(Cl)C=CC=C1,water,298,-2.55,mol/L
COC1=CC(=CC=C1)C(O)=O,water,298,-1.93,mol/L
OC(=O)C1=CC=C(C=C1)C#N,water,298,-2.25,mol/L
COC(=O)/C=C/C1=CC=CC=C1,water,298,-2.67,mol/L
CC(=O)NC1=C(O)C=CC=C1,water,298,-2.13,mol/L
COC1=C(Cl)C(=CC=C1)Cl,water,298,-3.31,mol/L
CN(C)C(=O)NC1=CC=CC=C1,water,298,-1.84,mol/L
OC(C(O)=O)C1=CC=CC=C1,water,298,-0.14,mol/L
COC1=CC(=CC=C1O)C=O,water,298,-1.14,mol/L
COC1=CC=CC=C1C(O)=O,water,298,-1.6,mol/L
CC(C)C1(CC=C(C)C)C(=O)NC(=O)NC1=O,water,298,-2.59,mol/L
[NH]1N=NC2=C1C=CC=C2,water,298,-0.77,mol/L
CC1=CC(=C(C=C1)C(O)=O)O,water,298,-2.9,mol/L
CCCC(C)C1(CC=C)C(=O)NC(=O)NC1=O,water,298,-2.14,mol/L
CC1=CC(=C(O)C=C1)C(O)=O,water,298,-2.76,mol/L
ClC1=CC=CC(=C1)N=C=S,water,298,-3.95,mol/L
ClC1=CC=CC(=C1C#N)Cl,water,298,-4.24,mol/L
CO[P](=O)(NC(C)=O)SC,water,298,0.54,mol/L
CCCCCCCCC1(CC)C(=O)NC(=O)NC1=O,water,298,-3.94,mol/L
CCCCCCCCCC1=CC=C(O)C=C1,water,298,-4.5,mol/L
CNC(=O)O\N=C\C(C)(C)[S](C)(=O)=O,water,298,-1.35,mol/L
[O-][N+](=O)C1=CC=CC(=C1)C=O,water,298,-1.98,mol/L
CCOC(=O)C1=CC=C(N)C=C1,water,298,-2.19,mol/L
CCCC(C)C1(CC)C(=O)NC(=S)NC1=O,water,298,-3.6,mol/L
CC12CCC3C(CCC4=CC(=O)CCC34C)C1CCC2O,water,298,-3.62,mol/L
CCC1(C(=O)NC(=O)NC1=O)C2=CCCCC2,water,298,-2.02,mol/L
CCOC(=O)C1=CC=C(O)C=C1,water,298,-2.2,mol/L
[O-][N+](=O)C1=C(C=O)C=CC=C1,water,298,-1.82,mol/L
CCC1C(=O)NC(=O)NC1=O,water,298,-0.92,mol/L
CC(=O)NC1=C(Cl)C=CC=C1,water,298,-1.4,mol/L
NC1=CC(=C(C=C1)C(O)=O)O,water,298,-1.96,mol/L
NC1=CC(=C(O)C=C1)C(O)=O,water,298,-2.26,mol/L
CN1C(=O)NC(=O)C(C)(C1=O)C2=CCCCC2,water,298,-2.99,mol/L
BrC1=CC=C(Br)C=C1,water,298,-4.07,mol/L
S=C=NC1=CC=CC(=C1)C#N,water,298,-3.19,mol/L
COC1=CC=C(NC(C)=O)C=C1,water,298,-1.04,mol/L
COC(=O)C1=CC=C(OC)C=C1,water,298,-2.34,mol/L
NC(CC1=CC=CC=C1)C(O)=O,water,298,-1.07,mol/L
CCCCCCCCCC1(CC)C(=O)NC(=O)NC1=O,water,298,-4.46,mol/L
COC(=O)CCCNC(=O)N[C]12C[CH]3[CH2]C([CH2][CH](C3)C1)C2,water,298,-2.25,mol/L
CC(C)OC(=O)NC1=CC=CC=C1,water,298,-3.0,mol/L
CC1=C[NH]C2=C1C=CC=C2,water,298,-2.42,mol/L
CNCC(O)C1=CC(=C(O)C=C1)O,water,298,-2.74,mol/L
OC(=O)C1=CC(=CC=C1O)O,water,298,-0.85,mol/L
CCOC1=C(O)C=CC(=C1)C=O,water,298,-1.77,mol/L
CC1=NC=C([N]1CCO)[N+]([O-])=O,water,298,-1.17,mol/L
CC(C)=CCC1(C(=O)NC(=O)NC1=O)C(C)(C)C,water,298,-3.55,mol/L
C1=CC2=C(C=C1)C=CC=C2,water,298,-3.77,mol/L
CC(=O)NC1=CC=C(C=O)C=C1,water,298,-1.63,mol/L
COC1=C(OC)C=C(C=O)C=C1,water,298,-1.42,mol/L
COC1=CC(=C(OC)C=C1)C=O,water,298,-2.32,mol/L
NC1=NC(=NC(=N1)NC2CC2)N,water,298,-1.11,mol/L
CCCOC(=O)C1=CC=C(N)C=C1,water,298,-2.54,mol/L
CCC1(C(=O)NC(=O)NC1=O)C2=CCCCCC2,water,298,-3.0,mol/L
OC1=C(Cl)C=C(Cl)C=C1Cl,water,298,-2.39,mol/L
C1=CC2=C(C=C1)C=NC=C2,water,298,-1.46,mol/L
CC1(O)CCC2C3CCC4=CC(=O)CCC4(C)C3CCC12C,water,298,-3.92,mol/L
CCCOC(=O)C1=CC=C(O)C=C1,water,298,-2.68,mol/L
O=C1NC(=O)C2(CCCCCCCCCC2)C(=O)N1,water,298,-4.59,mol/L
CN(C)C1=CC=C(C=C1)N=C=S,water,298,-4.13,mol/L
CCCC(C)C1(CC=C)C(=O)NC(=S)NC1=O,water,298,-3.46,mol/L
COC1=CC=CC=C1OCC(O)CO,water,298,-0.6,mol/L
CC1=NC2=C([NH]1)C=CC=C2,water,298,-1.96,mol/L
OC(=O)C1=CC=C(Br)C=C1,water,298,-3.85,mol/L
OC(=O)C1=CC(=O)NC(=O)N1,water,298,-1.94,mol/L
CC12CCC3C(CCC4=CC(=O)CCC34)C1CCC2(O)C#C,water,298,-4.63,mol/L
OC(=O)C1=CC(=CC=C1)Br,water,298,-2.87,mol/L
CCOC1=CC=C(NC(C)=O)C=C1,water,298,-2.21,mol/L
C1=CC2=C(C=C1)C=NN=C2,water,298,-0.42,mol/L
N#CC(=NNC1=CC=CC=C1)C#N,water,298,-3.36,mol/L
C1=CC2=C(C=C1)N=CC=N2,water,298,0.71,mol/L
ClC1=C(Cl)C=C(Cl)C(=C1)Cl,water,298,-5.56,mol/L
CC(C)C1C(=O)NC(=O)NC1=O,water,298,-1.46,mol/L
CCCCCC(O)/C=C/C1C(O)CC(=O)C1CCCCCCC(O)=O,water,298,-3.67,mol/L
ClC1=CC(=C(Cl)C(=C1)Cl)Cl,water,298,-4.79,mol/L
OC1=C(F)C(=C(F)C(=C1F)F)F,water,298,-0.52,mol/L
ClC1C=CC2C1C3(Cl)C(=C(Cl)C2(Cl)C3(Cl)Cl)Cl,water,298,-7.1,mol/L
ClC1=C(Cl)C(=C(Cl)C=C1)Cl,water,298,-4.25,mol/L
OC(=O)C1=C(Br)C=CC=C1,water,298,-2.05,mol/L
CN(C)C=NC1=C(C)C=C(Cl)C=C1,water,298,-2.88,mol/L
CCCCOC(=O)C1=CC=C(N)C=C1,water,298,-3.13,mol/L
OC(=O)C1=CC=C(C=C1)C(O)=O,water,298,-4.19,mol/L
O=C1NC(=O)C2(CCCCCCCCCCC2)C(=O)N1,water,298,-5.8,mol/L
OC(=O)COC1=CC=C(Cl)C=C1,water,298,-2.34,mol/L
NC(=O)C1=CC=CC=C1C(N)=O,water,298,-2.92,mol/L
CCCCCC(O)/C=C/C1C(O)CC(=O)C1C\C=C\CCCC(O)=O,water,298,-2.47,mol/L
OC(=O)C1=CC(=C(Cl)C=C1)Cl,water,298,-3.54,mol/L
CCCCOC(=O)C1=CC=C(O)C=C1,water,298,-3.13,mol/L
OC(=O)C1=CC(=CC=C1)C(O)=O,water,298,-3.22,mol/L
OC(=O)C1=C(Cl)C=C(Cl)C=C1,water,298,-2.6,mol/L
OC(=O)COC1=CC(=CC=C1)Cl,water,298,-1.9,mol/L
OC(=O)C1=CC=C(C=C1)[N+]([O-])=O,water,298,-2.84,mol/L
ClC1=C(Cl)C2(Cl)C3C4CC(C=C4)C3C1(Cl)C2(Cl)Cl,water,298,-6.31,mol/L
OC(=O)COC1=C(Cl)C=CC=C1,water,298,-2.16,mol/L
CC12CCC3C(CCC4=CC(=O)CCC34C)C1CCC2=O,water,298,-3.7,mol/L
CCC1=C(CCCC1)C2(CC)C(=O)NC(=O)NC2=O,water,298,-3.53,mol/L
CCC12CCC3C(CCC4=CC(=O)CCC34)C1CCC2(O)C#C,water,298,-5.19,mol/L
OC(=O)C1=CC=CC=C1C(O)=O,water,298,-1.07,mol/L
OC(=O)C1=CC(=CC=C1)[N+]([O-])=O,water,298,-1.76,mol/L
C1=NC2=C(N=C1)N=CN=C2,water,298,0.02,mol/L
CC(C)=CC1C(C(=O)OCN2C(=O)C3=C(CCCC3)C2=O)C1(C)C,water,298,-5.26,mol/L
CC1=CC2=C(C=CC=C2)C=C1,water,298,-3.76,mol/L
OC(=O)CNC(=O)C1=CC=CC=C1,water,298,-1.69,mol/L
[O-][N+](=O)C1=C(Cl)C=CC(=C1)Cl,water,298,-3.32,mol/L
[O-][N+](=O)C1=CC=C(C=C1)[N+]([O-])=O,water,298,-3.39,mol/L
NC1=NC=NC2=C1N=C[NH]2,water,298,-2.26,mol/L
CN(C)C(=O)NC1=CC=C(Cl)C=C1,water,298,-2.89,mol/L
CCC1(C(=O)NC(=O)NC1=O)C2=CC3CCC(C3)C2,water,298,-2.78,mol/L
OC(=O)C1=NC(=CC=C1Cl)Cl,water,298,-2.28,mol/L
CC(=O)NC1=CC=C(Br)C=C1,water,298,-3.25,mol/L
CC12CCC(=O)C=C1CCC3C2CCC4(C)C3CCC4(O)C#C,water,298,-5.72,mol/L
OC(=O)C1=C(C=CC=C1)[N+]([O-])=O,water,298,-1.35,mol/L
O=C1NC=NC2=C1C=N[NH]2,water,298,-2.45,mol/L
[O-][N+](=O)C1=CC(=CC=C1)[N+]([O-])=O,water,298,-2.5,mol/L
OC(=O)C1=CC=C(C=C1)N=C=S,water,298,-3.98,mol/L
O=C1NC=NC2=C1N=C[NH]2,water,298,-2.28,mol/L
OC(=O)C1=C(C=NC=C1)C(O)=O,water,298,-1.86,mol/L
ClC1=CC=CC(=N1)C(Cl)(Cl)Cl,water,298,-3.4,mol/L
NC(CC1=CC=C(O)C=C1)C(O)=O,water,298,-2.54,mol/L
NCC(CC(O)=O)C1=CC=C(Cl)C=C1,water,298,-1.7,mol/L
OC(=O)C1=CC(=CC=C1)N=C=S,water,298,-3.25,mol/L
CCNC1=NC(=NC(=N1)Cl)NCC,water,298,-4.55,mol/L
[O-][N+](=O)C1=C(C=CC=C1)[N+]([O-])=O,water,298,-3.1,mol/L
CCC(C)C1(CC(Br)=C)C(=O)NC(=O)NC1=O,water,298,-2.65,mol/L
OC1=C(Br)C=C(Br)C=C1,water,298,-2.08,mol/L
NC1=CC2=C(C=CC=C2)C=C1,water,298,-2.88,mol/L
CCCCCOC(=O)CCCNC(=O)N[C]12C[CH]3[CH2]C([CH2][CH](C3)C1)C2,water,298,-2.32,mol/L
CO[P](=O)(OC)C(O)C(Cl)(Cl)Cl,water,298,-0.22,mol/L
COC1=C(OC)C=C(Cl)C(=C1)Cl,water,298,-3.46,mol/L
ClC1C2OC2C3C1C4(Cl)C(=C(Cl)C3(Cl)C4(Cl)Cl)Cl,water,298,-6.34,mol/L
NC1=CC=CC2=C1C=CC=C2,water,298,-1.92,mol/L
CC(C)CC1=CC=C(C=C1)C(C)C(O)=O,water,298,-3.46,mol/L
OC1=CC2=C(C=CC=C2)C=C1,water,298,-2.28,mol/L
ClC1CC2C(C1Cl)C3(Cl)C(=C(Cl)C2(Cl)C3(Cl)Cl)Cl,water,298,-5.35,mol/L
CC(C)C1=CC=C(NC(=O)N(C)C)C=C1,water,298,-3.47,mol/L
OCC(O)C1OC(=O)C(=C1O)O,water,298,0.28,mol/L
CC(=O)NC1=CC=C(C=C1)[N+]([O-])=O,water,298,-3.11,mol/L
OC1=CC=CC2=C1C=CC=C2,water,298,-2.22,mol/L
ClC1=C(Cl)C2(Cl)C3C4CC(C5OC45)C3C1(Cl)C2(Cl)Cl,water,298,-6.29,mol/L
CC1=C(OCC(O)=O)C=CC(=C1)Cl,water,298,-2.23,mol/L
CN(C)C(=O)NC1=NOC(=C1)C(C)(C)C,water,298,-2.43,mol/L
CC(C)OC(=O)NC1=CC=CC(=C1)Cl,water,298,-3.38,mol/L
CC(C)NCC(O)COC1=C(CC=C)C=CC=C1,water,298,-2.63,mol/L
CC(=O)OC1=CC=C(C=C1)[N+]([O-])=O,water,298,-2.54,mol/L
CC(C)N(C(=O)CCl)C1=CC=CC=C1,water,298,-1.96,mol/L
OC(=O)C1=CC=C(I)C=C1,water,298,-4.04,mol/L
OC1=CC=CC2=C1N=CC=C2,water,298,-2.32,mol/L
CC(=O)OC1=C(C=CC=C1)C(O)=O,water,298,-1.73,mol/L
CC(OC1=CC=C(Cl)C=C1)C(O)=O,water,298,-2.13,mol/L
CC(=O)NC1=CC=CC=C1[N+]([O-])=O,water,298,-1.91,mol/L
CC1=CC2=C(C=C1)C=C(C)C=C2,water,298,-5.08,mol/L
OC(=O)C1=C(O)C=CC(=C1)Br,water,298,-2.65,mol/L
CC1=CC2=C(C=CC=C2)C=C1C,water,298,-4.9,mol/L
CCNC1=NC(=NC(=N1)Cl)NC(C)C,water,298,-3.49,mol/L
CNC(=O)OC1=CC(=CC(=C1)C)C(C)C,water,298,-3.36,mol/L
OC(=O)C1=CC(=CC=C1)I,water,298,-3.56,mol/L
O=C1NC(=O)C2=CC=CC=C12,water,298,-3.61,mol/L
O=C1OC2=C(C=CC=C2)C=C1,water,298,-3.16,mol/L
CC1=C(OCCCC(O)=O)C=CC(=C1)Cl,water,298,-3.68,mol/L
NC1=CC=C(C=C1)[S](N)(=O)=O,water,298,-1.37,mol/L
OC1=C(Cl)C(=C(Cl)C=C1Cl)Cl,water,298,-4.0,mol/L
CCC(=O)NC1=CC(=C(Cl)C=C1)Cl,water,298,-3.16,mol/L
OCC1=CC=CC2=C1C=CC=C2,water,298,-1.74,mol/L
ClC1=CC2=C(C=CC=C2)C=C1,water,298,-5.25,mol/L
CC1=C(C=C(C=C1)[N+]([O-])=O)[N+]([O-])=O,water,298,-2.82,mol/L
CC1=CC=CC2=C1C=CC=C2C,water,298,-4.75,mol/L
COC(=O)C1=CC=C(C=C1)C(=O)OC,water,298,-4.01,mol/L
CCCCC1=C(C)N=C(NC1=O)N(C)C,water,298,-2.24,mol/L
C1=CC=C(C=C1)C2=CC=CC=C2,water,298,-4.32,mol/L
NC1=CC=C(C=C1)[S](O)(=O)=O,water,298,-1.12,mol/L
OC(=O)C1=CC=CC=C1I,water,298,-2.42,mol/L
CC1CCCCC1NC(=O)NC2=CC=CC=C2,water,298,-4.11,mol/L
CCN(CC)CCOC(=O)C1=CC=C(N)C=C1,water,298,-2.08,mol/L
O=C1OC(=O)C2=CC=CC=C12,water,298,-1.38,mol/L
CC(CCC(O)=O)C1CCC2C3C(O)CC4CC(O)CCC4(C)C3CCC12C,water,298,-4.57,mol/L
CC(=O)NC1=CC=C(OC(C)=O)C=C1,water,298,-1.91,mol/L
IC1=CC=C(C=C1)N=C=S,water,298,-4.05,mol/L
CC(CCC(O)=O)C1CCC2C3CCC4CC(O)CCC4(C)C3CC(O)C12C,water,298,-4.55,mol/L
ClC1=C(Cl)C(=C(Cl)C(=C1)Cl)Cl,water,298,-6.02,mol/L
CCOC(=O)C1(CCN(C)CC1)C2=CC=CC=C2,water,298,-1.58,mol/L
CN(CC1=CC=C(Cl)N=C1)C(C)=NC#N,water,298,-1.72,mol/L
CC(=O)C1CCC2C3CCC4=CC(=O)CCC4(C)C3CCC12C,water,298,-4.43,mol/L
ClC1=C(Cl)C2(Cl)C3CO[S](=O)OCC3C1(Cl)C2(Cl)Cl,water,298,-6.18,mol/L
IC1=CC=C(I)C=C1,water,298,-5.37,mol/L
C1CC2=CC=CC3=CC=CC1=C23,water,298,-4.61,mol/L
NC(=O)N/N=C/C1=CC=C(O1)[N+]([O-])=O,water,298,-2.98,mol/L
CC(=O)NC1=CC=C(I)C=C1,water,298,-3.72,mol/L
C1=NC=CC(=C1)C2=CC=NC=C2,water,298,-1.54,mol/L
OC1=C(C=CC(=C1)[N+]([O-])=O)[N+]([O-])=O,water,298,-2.68,mol/L
OC(=O)COC1=CC(=C(Cl)C=C1)Cl,water,298,-2.68,mol/L
CC(=O)C1(O)CCC2C3CCC4=CC(=O)CCC4(C)C3CCC12C,water,298,-4.74,mol/L
C(CC1=CC=CC=C1)C2=CC=CC=C2,water,298,-4.63,mol/L
OC1=CC(=CC(=C1)[N+]([O-])=O)[N+]([O-])=O,water,298,-1.66,mol/L
CC(C)NC1=NC(=NC(=N1)Cl)NC(C)C,water,298,-4.46,mol/L
C1=CC=C(N=C1)C2=NC=CC=C2,water,298,-1.42,mol/L
OC(=O)COC1=C(Cl)C=C(Cl)C=C1,water,298,-2.85,mol/L
NC(CC1=CC=C(O)C(=C1)O)C(O)=O,water,298,-1.82,mol/L
CN(C)C1=NC(=NC(=N1)N(C)C)N(C)C,water,298,-3.38,mol/L
ClC(Cl)(Cl)C(NC=O)N1CCN(CC1)C(NC=O)C(Cl)(Cl)Cl,water,298,-4.16,mol/L
CCNC1=NC(=NC(=N1)Cl)N(CC)CC,water,298,-4.06,mol/L
COC1=C(Cl)C(=C(Cl)C(=C1)Cl)Cl,water,298,-5.26,mol/L
COC1=C(Cl)C(=C(Cl)C=C1Cl)Cl,water,298,-5.15,mol/L
BrC1=CC(=CC(=C1)Br)Br,water,298,-5.6,mol/L
ClC1=CC2=C(OC(=O)N2)C=C1,water,298,-2.83,mol/L
CON(C)C(=O)NC1=CC=C(Cl)C=C1,water,298,-2.47,mol/L
CN(C)C(=O)NC1=CC(=C(Cl)C=C1)Cl,water,298,-3.77,mol/L
BrC1=CC(=C(Br)C=C1)Br,water,298,-4.81,mol/L
OC(=O)C1=CC=C(Cl)C(=C1)[N+]([O-])=O,water,298,-2.76,mol/L
OC(=O)CCCOC1=C(Cl)C=C(Cl)C=C1,water,298,-3.57,mol/L
OC(=O)C1=C(C=CC(=C1)Cl)[N+]([O-])=O,water,298,-1.32,mol/L
N(C1=CC=CC=C1)C2=CC=CC=C2,water,298,-2.75,mol/L
COC1=CC=CC=C1OCC(O)COC(N)=O,water,298,-1.53,mol/L
CC(CCC(O)=O)C1CCC2C3C(O)CC4CC(O)CCC4(C)C3CC(O)C12C,water,298,-3.63,mol/L
CCN(CC)CC(=O)NC1=C(C)C=CC=C1C,water,298,-1.79,mol/L
OC(=O)CC1=CC(=C(OCC=C)C=C1)Cl,water,298,-3.13,mol/L
CC1=CC=C(C)C2=C1C=CC=C2C,water,298,-4.92,mol/L
CC1=C(Cl)C(=O)N(C(=O)N1)C(C)(C)C,water,298,-2.49,mol/L
CN(C)C(=O)NC1=CC=CC(=C1)C(F)(F)F,water,298,-3.46,mol/L
CCC1(CCC(=O)NC1=O)C2=CC=CC=C2,water,298,-2.34,mol/L
OC(=O)C1=C(C(=CC=C1)Cl)[N+]([O-])=O,water,298,-2.63,mol/L
CCC1(C(=O)NCNC1=O)C2=CC=CC=C2,water,298,-2.65,mol/L
OC1=CC=CC2=C1C=CC=C2O,water,298,-2.92,mol/L
NNC1=NN=CC2=C1C=CC=C2,water,298,-2.6,mol/L
COC1=C(C(O)=O)C(=CC=C1Cl)Cl,water,298,-1.7,mol/L
O(C1=CC=CC=C1)C2=CC=CC=C2,water,298,-3.98,mol/L
CC(=O)C1CCC2C3CCC4=CC(=O)CCC4(C)C3C(O)CC12C,water,298,-3.82,mol/L
COC1=C(Cl)C=C(NC(=O)N(C)C)C=C1,water,298,-2.53,mol/L
ClCC#CCOC(=O)NC1=CC(=CC=C1)Cl,water,298,-4.24,mol/L
COC1=C(OC)C(=C(Cl)C(=C1)Cl)Cl,water,298,-4.37,mol/L
CCC(=O)OC1CCC2C3CCC4=CC(=O)CCC4(C)C3CCC12C,water,298,-5.37,mol/L
C[S](=O)(=O)OCCCCO[S](C)(=O)=O,water,298,-2.27,mol/L
CCNC1=NC(=NC(=N1)SC)NC(C)C,water,298,-3.04,mol/L
C1=CC=C(C=C1)\C=C\C2=CC=CC=C2,water,298,-5.93,mol/L
OC1=CC=C(C=C1)C2=CC=CC=C2,water,298,-3.48,mol/L
OC(=O)CC1=C(Cl)C=CC(=C1Cl)Cl,water,298,-3.08,mol/L
CC12CCC3C(CCC4=CC(=O)CCC34C)C1CCC2C(=O)CO,water,298,-3.45,mol/L
OC(CCN1CCCC1)(C2CCCCC2)C3=CC=CC=C3,water,298,-4.7,mol/L
CCNC1=NC(=NC(=N1)NC(C)(C)C#N)Cl,water,298,-3.15,mol/L
CC1=C(O)C(=CC(=C1)[N+]([O-])=O)[N+]([O-])=O,water,298,-3.2,mol/L
CC(C)NCC(O)COC1=CC=C(CC(N)=O)C=C1,water,298,-0.75,mol/L
CNC(NCCSCC1=C(C)[NH]C=N1)=NC#N,water,298,-1.43,mol/L
OC1=CC=CC=C1C2=CC=CC=C2,water,298,-2.39,mol/L
CC(=O)OC1(CCC2C3CCC4=CC(=O)CCC4C3CCC12C)C#C,water,298,-4.87,mol/L
CNC(=O)OC1=C2OC(C)(C)CC2=CC=C1,water,298,-2.42,mol/L
CCSC(=O)COC1=C(C)C=C(Cl)C=C1,water,298,-5.03,mol/L
CC(OC1=C(Cl)C=C(Cl)C=C1)C(O)=O,water,298,-2.45,mol/L
OC1=C(Br)C=C(C=C1Br)C#N,water,298,-3.33,mol/L
C1=CC=C(C=C1)N=NC2=CC=CC=C2,water,298,-4.45,mol/L
N(NC1=CC=CC=C1)C2=CC=CC=C2,water,298,-2.92,mol/L
C1C2=C(C=CC=C2)C3=C1C=CC=C3,water,298,-4.55,mol/L
OC(=O)C1=CC2=CC=CC=C2C=C1,water,298,-3.93,mol/L
OC1=C(Cl)C(=C(Cl)C(=C1Cl)Cl)Cl,water,298,-4.21,mol/L
SC1=NC2=C(S1)C=CC=C2,water,298,-3.15,mol/L
CC(C)(NC(=O)C1=CC(=CC(=C1)Cl)Cl)C#C,water,298,-4.23,mol/L
ClC1=CC2=C(C=C1)C=CC(=C2)Cl,water,298,-5.92,mol/L
OC(CCN1CCCCC1)(C2CCCCC2)C3=CC=CC=C3,water,298,-5.2,mol/L
ClC1=CC=C(C=C1)C2=CC=CC=C2,water,298,-5.22,mol/L
ClC1=C(Cl)C(=C(Cl)C(=C1Cl)Cl)Cl,water,298,-6.78,mol/L
OC(=O)C1=CC=CC2=CC=CC=C12,water,298,-3.3,mol/L
O=C1NC(=O)C2=C(N1)NC(=O)N2,water,298,-3.4,mol/L
ClC1=CC2=C(C=CC=C2)C=C1Cl,water,298,-5.36,mol/L
CSC1=NC(=NC(=N1)NC(C)C)NC(C)C,water,298,-4.1,mol/L
CCNC1=NC(=NC(=N1)SC)NC(C)(C)C,water,298,-4.0,mol/L
ClC1=CC2=C(C=CC=C2Cl)C=C1,water,298,-5.92,mol/L
OCC1OC(OC2=CC=CC=C2CO)C(O)C(O)C1O,water,298,-0.85,mol/L
ClC1=C(Cl)C2=C(C=CC=C2)C=C1,water,298,-6.16,mol/L
OC1=C(C=CC2=C1C=CC=C2)N=O,water,298,-2.54,mol/L
[O-][N+](=O)C1=CC=CC2=C1C=CC=C2,water,298,-4.28,mol/L
NC1=C(Cl)C(=NC(=C1Cl)C(O)=O)Cl,water,298,-2.73,mol/L
ClC1=CC=CC2=C1C=CC=C2Cl,water,298,-5.7,mol/L
ClC1=CC=C(Cl)C2=C1C=CC=C2,water,298,-5.8,mol/L
OC1=C(N=O)C2=C(C=CC=C2)C=C1,water,298,-2.24,mol/L
ClC1=C(C=CC=C1)C2=CC=CC=C2,water,298,-4.54,mol/L
CC(=O)C1(C)CCC2C3C=C(C)C4=CC(=O)CCC4(C)C3CCC12C,water,298,-5.35,mol/L
ClC1=CC=CC2=C1C(=CC=C2)Cl,water,298,-5.8,mol/L
S=C=NC1=CC2=CC=CC=C2C=C1,water,298,-4.44,mol/L
COC1=C(Cl)C(=C(Cl)C(=C1O)Cl)Cl,water,298,-4.8,mol/L
CC1(C(=O)NC(=O)NC1=O)C2=CC=CC=C2,water,298,-2.38,mol/L
CC12CC(O)C3C(CCC4=CC(=O)CCC34C)C1CCC2C(=O)CO,water,298,-3.24,mol/L
O=C1NC2=C(CCC2)C(=O)N1C3CCCCC3,water,298,-4.59,mol/L
CCCCN(C)C(=O)NC1=CC=C(Cl)C(=C1)Cl,water,298,-4.77,mol/L
CNC(=O)N(C)C1=NN=C(S1)C(C)(C)C,water,298,-1.96,mol/L
CNC(=O)OC1=C2OC(C)(C)OC2=CC=C1,water,298,-2.93,mol/L
OC1=C(Br)C=C(Br)C=C1Br,water,298,-3.73,mol/L
OC(=O)COC1=C(Cl)C=C(Cl)C(=C1)Cl,water,298,-2.98,mol/L
O=C(C1=CC=CC=C1)C2=CC=CC=C2,water,298,-3.12,mol/L
OC(=O)COC1=C(Cl)C(=C(Cl)C=C1)Cl,water,298,-3.1,mol/L
CC12CCC3C(CCC4=CC(=CC=C34)O)C1CCC2O,water,298,-4.83,mol/L
CCC(C)N1C(=O)NC(=C(Br)C1=O)C,water,298,-2.5,mol/L
NC1=CC=C(CC2=CC=C(N)C=C2)C=C1,water,298,-2.3,mol/L
NC1=CC=C(C=C1)C2=CC=C(N)C=C2,water,298,-2.76,mol/L
CCC(C)C(=O)OC1CC(C)C=C2C=CC(C)C(CCC3CC(O)CC(=O)O3)C12,water,298,-6.01,mol/L
S=C=NC1=CC=CC2=CC=CC=C12,water,298,-4.6,mol/L
CC12CCC(=O)C=C1CCC3C4CCC(O)(C(=O)CO)C4(C)CC(O)C23,water,298,-3.03,mol/L
CON(C)C(=O)NC1=CC(=C(Cl)C=C1)Cl,water,298,-3.52,mol/L
C[N]1C=NC2=C1C(=O)NC(=O)N2C,water,298,-3.3,mol/L
OC(=O)COC1=C(Cl)C=C(Cl)C(=N1)Cl,water,298,-2.78,mol/L
CN1C(=O)N(C)C2=C(N=C[NH]2)C1=O,water,298,-1.35,mol/L
CC1=CC=CC2=C1CC3=C2C=CC=C3,water,298,-5.22,mol/L
CC1=C(SCCO1)C(=O)NC2=CC=CC=C2,water,298,-3.14,mol/L
CC(C)(C)NCC(O)COC1=CC=CC2=C1CC(O)C(O)C2,water,298,-1.01,mol/L
CN(C)C(=O)OC1=NC(=NC(=C1C)C)N(C)C,water,298,-1.95,mol/L
OC(=O)C1=CC(=CC(=C1)[N+]([O-])=O)[N+]([O-])=O,water,298,-2.21,mol/L
COC(=O)C[S](=O)(=O)C1=CC=CC=C1,water,298,-1.14,mol/L
CCC1=C(N(COC)C(=O)CCl)C(=CC=C1)CC,water,298,-3.26,mol/L
OC(=O)C1=CC=CC(=C1C(O)=O)[N+]([O-])=O,water,298,-1.01,mol/L
CC12CC(O)C3C(CCC4=CC(=O)C=CC34C)C1CCC2(O)C(=O)CO,water,298,-3.24,mol/L
CCC1(C(=O)NC(=O)NC1=O)C2=CC=CC=C2,water,298,-2.37,mol/L
CNC(=O)N(C)C1=NN=C(S1)C(F)(F)F,water,298,-1.98,mol/L
[O-][N+](=O)C1=CC(=CC(=C1)[N+]([O-])=O)[N+]([O-])=O,water,298,-2.89,mol/L
CC12CCC3C(CCC4=CC(=CC=C34)O)C1CC(O)C2O,water,298,-4.95,mol/L
CN1C2CCC1CC(C2)OC(=O)C(CO)C3=CC=CC=C3,water,298,-1.91,mol/L
CC12CCC3C(CCC4=C3C=CC(=C4)O)C1CCC2=O,water,298,-3.96,mol/L
COC(=O)C1(CC1)[S](=O)(=O)C2=CC=CC=C2,water,298,-2.26,mol/L
CN1N(C(=O)C=C1C)C2=CC=CC=C2,water,298,0.35,mol/L
CC(=O)N[S](=O)(=O)C1=CC=C(N)C=C1,water,298,-1.41,mol/L
NC(=N)N[S](=O)(=O)C1=CC=C(N)C=C1,water,298,-1.99,mol/L
CCOC1=C(OCC)C=C(NC(=O)OC(C)C)C=C1,water,298,-4.0,mol/L
ClC1=C(Cl)C(=C(Cl)C(=C1Cl)C#N)C#N,water,298,-6.17,mol/L