Solute,Solvent,Temperature_K,Solubility,Units
OC1=C(C=CC(=C1)F)[N+]([O-])=O,water,298,-2.05,mol/L
CC(C)C1=NC=C([N]1C)[N+]([O-])=O,water,298,-1.26,mol/L
CNC(=O)OC1=CC(=C(C)C=C1)C,water,298,-2.49,mol/L
CNC(=O)OC1=CC(=CC(=C1)C)C,water,298,-2.58,mol/L
OC1=C(C=C(Cl)C=C1)[N+]([O-])=O,water,298,-3.09,mol/L
CC(O)C[N]1C(=NC=C1[N+]([O-])=O)C,water,298,-0.74,mol/L
O[P](O)(=O)C1=CC=CC=C1,water,298,0.17,mol/L
COC1=CC(=C(O)C=C1)[N+]([O-])=O,water,298,-2.84,mol/L
CN(C)C(=O)SCCCCOC1=CC=CC=C1,water,298,-3.93,mol/L
[O-][N+](=O)C1=CC(=C(Cl)C=C1)Cl,water,298,-3.2,mol/L
COC1=C(Cl)C=C(Cl)C=C1Cl,water,298,-4.33,mol/L
S1C=CC2=C1C=CC=C2,water,298,-3.01,mol/L
NC(=O)COC(=O)C1=CC=CC=C1,water,298,-1.64,mol/L
OC1=C(C=C(C=O)C=C1)[N+]([O-])=O,water,298,-2.95,mol/L
CCCCCOC(=O)C1=CC=C(N)C=C1,water,298,-3.75,mol/L
O=C1CCC2=CC=CC3=C2N1CC3,water,298,-1.64,mol/L
CC1=CC2=C(C=CC=C2)C=N1,water,298,-2.19,mol/L
CC1=C(Cl)C=C(C(=C1)O)[N+]([O-])=O,water,298,-4.39,mol/L
CCCCCCOC(=O)C1=CC=C(N)C=C1,water,298,-4.51,mol/L
CNC(=O)COC(=O)C1=CC=CC=C1,water,298,-1.72,mol/L
CNC(=O)\C=C(C)\O[P](=O)(OC)OC,water,298,0.65,mol/L
CCC(C)C1=C(OC(=O)NC)C=CC=C1,water,298,-2.53,mol/L
CCCCCCCOC(=O)C1=CC=C(N)C=C1,water,298,-5.14,mol/L
CCCCC1=C(C)N=C(NCC)NC1=O,water,298,-3.15,mol/L
CN(C)C(=O)NC1=CC(=C(C)C=C1)Cl,water,298,-4.33,mol/L
CCC(CC)(C(=O)NC(N)=O)C(=O)OCC(=O)OC,water,298,-2.01,mol/L
OC(=O)CONC(=O)C1=CC=CC=C1,water,298,-0.95,mol/L
COC(=O)C1=CC(=C(O)C(=C1)O)O,water,298,-1.24,mol/L
COC1=C(O)C=CC(=C1)\C=C\C(O)=O,water,298,-3.05,mol/L
S=C1NC=NC2=C1N=C[NH]2,water,298,-2.95,mol/L
CCNC(=O)COC(=O)C1=CC=CC=C1,water,298,-2.24,mol/L
CNC(=O)N1C=C(F)C(=O)NC1=O,water,298,-2.28,mol/L
CCC(=O)N1C(=O)NC=C(F)C1=O,water,298,-0.7,mol/L
NC1=C(Cl)C=C(C=C1Cl)[N+]([O-])=O,water,298,-4.47,mol/L
CCNC1=NC(=NC(=N1)OC)NC(C)C,water,298,-2.04,mol/L
CNC(=O)OC1=CC(=C(C=C1)N(C)C)C,water,298,-2.36,mol/L
CNC(=O)CS[P](=S)(OC)OC,water,298,-0.96,mol/L
CN(C)C(=O)COC(=O)C1=CC=CC=C1,water,298,-1.37,mol/L
CNC(=O)OC1=C(OC(C)C)C=CC=C1,water,298,-2.05,mol/L
COC(=O)N1C=C(F)C(=O)NC1=O,water,298,-0.91,mol/L
NC1=NC2=C(N=C[NH]2)C(=O)N1,water,298,-4.78,mol/L
CC(=O)OCN1C=C(F)C(=O)NC1=O,water,298,-0.67,mol/L
CCSCC1=CC=CC=C1OC(=O)NC,water,298,-2.09,mol/L
COC(=O)C1=CC=CC=C1OC(C)=O,water,298,-1.84,mol/L
OC1=C(C=C(C=C1)[N+]([O-])=O)[N+]([O-])=O,water,298,-2.74,mol/L
O=C1NC(=O)C2=C([NH]C=N2)N1,water,298,-3.87,mol/L
CC(=O)OCN1C(=O)NC=C(F)C1=O,water,298,-1.2,mol/L
CCNC1=NC(=NC(=N1)Cl)NC(C)(C)C,water,298,-4.43,mol/L
OC(=O)C1=C(Cl)C(=CC=C1Cl)Cl,water,298,-1.43,mol/L
CCCNC(=O)COC(=O)C1=CC=CC=C1,water,298,-2.54,mol/L
CCNC1=NC(=NC(=N1)NCC)SC,water,298,-2.73,mol/L
C[N]1C(=NC=C1[N+]([O-])=O)COC(N)=O,water,298,-1.84,mol/L
CNC1=NC(=NC(=N1)NC(C)C)SC,water,298,-2.55,mol/L
CCC(C)([S](=O)(=O)CC)[S](=O)(=O)CC,water,298,-1.91,mol/L
CC(C)NC(=O)COC(=O)C1=CC=CC=C1,water,298,-2.73,mol/L
[O-][N+](=O)C1=C(Cl)C(=C(Cl)C=C1)Cl,water,298,-3.94,mol/L
CCNC(=O)N1C=C(F)C(=O)NC1=O,water,298,-2.13,mol/L
NCCC1=C[NH]C2=C1C=C(O)C=C2,water,298,-0.95,mol/L
NC1=[N+]([O-])C(=NC(=C1)N2CCCCC2)N,water,298,-1.94,mol/L
CCOC(=O)OCN1C(=O)NC=C(F)C1=O,water,298,-1.46,mol/L
CCCC(C)C(=O)NC1=CC(=C(C)C=C1)Cl,water,298,-4.45,mol/L
CC(C)NCC(O)COC1=C(OCC=C)C=CC=C1,water,298,-0.32,mol/L
OC1=CC2=C(C=CC=C2)C=C1O,water,298,-2.74,mol/L
CC(C#C)N(C)C(=O)NC1=CC=C(Cl)C=C1,water,298,-3.9,mol/L
COC1=NC(=NC(=N1)NC(C)C)NC(C)C,water,298,-2.56,mol/L
CCOC(=O)N1C=C(F)C(=O)NC1=O,water,298,-1.47,mol/L
OC1=CC2=C(C=CC=C2)C(=C1)O,water,298,-1.95,mol/L
CN(C)C(=O)N1C=C(F)C(=O)NC1=O,water,298,-1.53,mol/L
CCNC1=NC(=NC(=N1)OC)NC(C)(C)C,water,298,-3.24,mol/L
O=C(COC(=O)C1=CC=CC=C1)N2CCC2,water,298,-1.61,mol/L
CNC(=O)OC1=C(C=CC=C1)C2OCCO2,water,298,-1.57,mol/L
CCC(=O)OCN1C=C(F)C(=O)NC1=O,water,298,-0.81,mol/L
CCOC(=O)N1C(=O)NC=C(F)C1=O,water,298,-0.45,mol/L
CCCCNC(=O)COC(=O)C1=CC=CC=C1,water,298,-2.76,mol/L
CCC(C)(C)C(=O)OC1CC(C)C=C2C=CC(C)C(CCC3CC(O)CC(=O)O3)C12,water,298,-5.48,mol/L
CC(C)(C)C(=O)OCN1C=C(F)C(=O)NC1=O,water,298,-2.03,mol/L
CC(C)(C)NC(=O)COC(=O)C1=CC=CC=C1,water,298,-2.87,mol/L
OC(C1=CC=CC=C1)C2=CC=CC=C2,water,298,-2.57,mol/L
CCN(CC)C(=O)COC(=O)C1=CC=CC=C1,water,298,-2.07,mol/L
CCCC(=O)OCN1C=C(F)C(=O)NC1=O,water,298,-1.31,mol/L
O=C(COC(=O)C1=CC=CC=C1)N2CCCC2,water,298,-1.57,mol/L
CC(C)(C)NCC(O)COC1=C(C=CC=C1)C2CCCC2,water,298,-1.84,mol/L
CNC(=O)OC1=CC(=C(SC)C(=C1)C)C,water,298,-3.92,mol/L
CN(C)C(=O)COC(=O)C1=C(O)C=CC=C1,water,298,-1.71,mol/L
CCCCNC(=O)N1C=C(F)C(=O)NC1=O,water,298,-2.45,mol/L
NC1=C(O)C(=CC(=C1)[N+]([O-])=O)[N+]([O-])=O,water,298,-2.15,mol/L
CCC(C)C(=O)OC1CCC=C2C=CC(C)C(CCC3CC(O)CC(=O)O3)C12,water,298,-5.42,mol/L
CCCCOC(=O)N1C=C(F)C(=O)NC1=O,water,298,-1.59,mol/L
COCCN(C(=O)CCl)C1=C(C)C=CC=C1C,water,298,-2.09,mol/L
CC1=CC(=O)C2=C(C=CC=C2)C1=O,water,298,-3.07,mol/L
CC(C)COC(=O)N1C=C(F)C(=O)NC1=O,water,298,-1.89,mol/L
CCN(CCO)C(=O)COC(=O)C1=CC=CC=C1,water,298,-1.37,mol/L
FC1=CN(C(=O)NC1=O)C(=O)OCCCl,water,298,-1.91,mol/L
CON(C)C(=O)NC1=CC=C(Br)C=C1,water,298,-2.9,mol/L
O=C(COC(=O)C1=CC=CC=C1)N2CCOCC2,water,298,-1.77,mol/L
N#CC(=N\OCC1OCCO1)/C2=CC=CC=C2,water,298,-4.07,mol/L
CN1CCC23CCCCC2C1CC4=C3C=C(O)C=C4,water,298,-2.72,mol/L
CO[P](=S)(OC)SCC(=O)N(C)C=O,water,298,-2.0,mol/L
COC(=O)NC1=NC2=CC=CC=C2[NH]1,water,298,-4.52,mol/L
CCC(C)C(=O)OC1CC(O)C=C2C=CC(C)C(CCC3CC(O)CC(=O)O3)C12,water,298,-3.35,mol/L
NC(=O)CNC(=O)COC(=O)C1=CC=CC=C1,water,298,-1.5,mol/L
[O-][N+](=O)C1=C(Cl)C(=CC(=C1Cl)Cl)Cl,water,298,-5.77,mol/L
CCSC1=NC(=NC(=N1)NC(C)C)NC(C)C,water,298,-4.2,mol/L
OC(=O)CCCC1=CC=C(C=C1)N(CCCl)CCCl,water,298,-3.4,mol/L
C=CCN(CC=C)C(=O)COC(=O)C1=CC=CC=C1,water,298,-2.56,mol/L
CC(C)N(C(C)C)C(=O)COC(=O)C1=CC=CC=C1,water,298,-3.34,mol/L
OCCN(CCO)C(=O)COC(=O)C1=CC=CC=C1,water,298,0.43,mol/L
OC1CCN(CC1)C(=O)COC(=O)C2=CC=CC=C2,water,298,-1.35,mol/L
NC1=NC2=C(C=N1)N=C[N]2COCCO,water,298,-1.08,mol/L
CCCCCCOC(=O)N1C=C(F)C(=O)NC1=O,water,298,-2.24,mol/L
OC(C(O)C1=CC=CC=C1)C2=CC=CC=C2,water,298,-1.93,mol/L
CCN(CC)C(=O)COC(=O)C1=C(O)C=CC=C1,water,298,-2.56,mol/L
COCCCNC1=NC(=NC(=N1)NC(C)C)SC,water,298,-2.93,mol/L
CC(=O)NC1=CC=C(C=C1)[S](N)(=O)=O,water,298,-2.21,mol/L
COC1=CC2=C(CC3C4CCCCC24CCN3C)C=C1,water,298,-3.48,mol/L
CNC1=CC=C(C=C1)[S](=O)(=O)N(C)C,water,298,-3.08,mol/L
ClC1=C(OC2=CC=CC=C2)C=CC=C1,water,298,-4.78,mol/L
OCC(CO)(CO)NC(=O)COC(=O)C1=CC=CC=C1,water,298,-1.27,mol/L
CN(CC(N)=O)C(=O)COC(=O)C1=CC=CC=C1,water,298,-0.92,mol/L
CCCCCCCCNC(=O)N1C=C(F)C(=O)NC1=O,water,298,-4.18,mol/L
CC1CCCC(C)N1C(=O)COC(=O)C2=CC=CC=C2,water,298,-3.26,mol/L
CC(NC(=O)COC(=O)C1=CC=CC=C1)C(N)=O,water,298,-2.72,mol/L
COCCN(CCOC)C(=O)COC(=O)C1=CC=CC=C1,water,298,-1.57,mol/L
CC(=O)OC1=CC=CC=C1C(=O)OCC(N)=O,water,298,-1.79,mol/L
CON(C1CCCCC1)C(=O)C2=C(C)OC(=C2)C,water,298,-2.92,mol/L
CON(C)C(=O)NC1=CC=C(Br)C(=C1)Cl,water,298,-3.92,mol/L
OC(=O)C1=C(C=CC=C1)C2=CC=CC=C2,water,298,-2.73,mol/L
CC1=C(C=C(C=C1[N+]([O-])=O)[N+]([O-])=O)[N+]([O-])=O,water,298,-3.24,mol/L
CN(C)C1=CC=C(C=C1)N=NC2=CC=CC=C2,water,298,-3.05,mol/L
CCOC(=O)CN(C)C(=O)COC(=O)C1=CC=CC=C1,water,298,-1.67,mol/L
CC(=O)OC[N]1N=CC2=C1N=CNC2=O,water,298,-2.56,mol/L
CC(C)(C)N1N=CC(=C(Cl)C1=O)SCC2=CC=C(C=C2)C(C)(C)C,water,298,-7.48,mol/L
OC(=O)C1CCN1C(=O)COC(=O)C2=CC=CC=C2,water,298,-2.14,mol/L
CC1=NN=C(C2=CC=CC=C2)C(=O)N1N,water,298,-2.05,mol/L
FC(F)(F)C1=CC=CC(=C1)N2CC(CCl)C(Cl)C2=O,water,298,-4.05,mol/L
C1=CC=C2N=C3C=CC=CC3=CC2=C1,water,298,-3.67,mol/L
CN1C=CSC1=NC2=C(C)C=C(C)C=C2,water,298,-3.16,mol/L
CCNC(=O)COC(=O)C1=CC=CC=C1OC(C)=O,water,298,-1.68,mol/L
C1=CC2=CN=C3C=CC=CC3=C2C=C1,water,298,-2.78,mol/L
CCOC(=O)COC(=O)C1=CC=CC=C1OC(C)=O,water,298,-2.58,mol/L
CN(C)C(=O)COC(=O)C1=CC=CC=C1OC(C)=O,water,298,-1.55,mol/L
CN(C)[S](=O)(=O)C1=CC=C(C=C1)N(C)C=O,water,298,-2.37,mol/L
ClCCN(CCCl)[P]1(=O)NCCCO1,water,298,-0.82,mol/L
CC(=O)OCCOC[N]1C=NC2=C1N=C(N)N=C2,water,298,-0.97,mol/L
CC(=O)OC1=CC=CC=C1C(=O)OC[S](C)=O,water,298,-1.78,mol/L
NC(=O)C1CCCN1C(=O)COC(=O)C2=CC=CC=C2,water,298,-2.27,mol/L
OC1=CC=C(C=C1[N+]([O-])=O)C2=CC=CC=C2,water,298,-4.41,mol/L
CN1CCC23C4OC5=C(O)C=CC(=C25)CC1C3C=CC4O,water,298,-3.15,mol/L
NC1=C(Cl)C(=O)N(N=C1)C2=CC=CC=C2,water,298,-2.87,mol/L
CC1(OC(=O)N(C1=O)C2=CC(=CC(=C2)Cl)Cl)C=C,water,298,-5.04,mol/L
OC(=O)C1CCCN1C(=O)COC(=O)C2=CC=CC=C2,water,298,-1.59,mol/L
CCCC(=O)OC[N]1C=C2C(=O)NC=NC2=N1,water,298,-2.2,mol/L
CNC(=O)N(C)C1=NC2=C(S1)C=CC=C2,water,298,-3.57,mol/L
CCCC(=O)OC[N]1N=CC2=C1N=CNC2=O,water,298,-2.83,mol/L
ClC1=NC=CC(=C1)NC(=O)NC2=CC=CC=C2,water,298,-3.8,mol/L
CC(O)C[N]1C=NC2=C1C(=O)N(C)C(=O)N2C,water,298,0.62,mol/L
CC(=O)NC1=NC2=C(C=N1)N=C[N]2COCCO,water,298,-0.86,mol/L
CC1=C(N(C2CCOC2=O)C(=O)CCl)C(=CC=C1)C,water,298,-3.29,mol/L
CN(C)[S](=O)(=O)C1=CC=C(C=C1)N(C)C(C)=O,water,298,-2.3,mol/L
ClC1=CC=CC(=C1Cl)C2=CC=CC=C2Cl,water,298,-5.94,mol/L
COCC(=O)N(C(C)C(=O)OC)C1=C(C)C=CC=C1C,water,298,-1.6,mol/L
CCN(CC)C(=O)COC(=O)C1=CC=CC=C1OC(C)=O,water,298,-2.11,mol/L
CC(C)(C)C(=O)OC[N]1C=C2C(=O)NC=NC2=N1,water,298,-2.17,mol/L
NC1=C2C=C3C=CC=CC3=NC2=CC=C1,water,298,-4.22,mol/L
CC1(C)C(C=C(Cl)Cl)C1C(=O)OCC2=C(F)C(=CC(=C2F)F)F,water,298,-6.81,mol/L
CC(C)(C)C(=O)OC[N]1N=CC2=C1N=CNC2=O,water,298,-2.68,mol/L
ClC(Cl)C(Cl)(Cl)SN1C(=O)C2CC=CCC2C1=O,water,298,-5.4,mol/L
ClC1=CC(=C(C=C1)C(C[N]2C=CN=C2)OCC=C)Cl,water,298,-3.22,mol/L
O=C(OC1CCCCC1)C2=CC=CC=C2C(=O)OC3CCCCC3,water,298,-4.92,mol/L
CC(C)OC(=O)C1=CC(=CC(=C1)[N+]([O-])=O)C(=O)OC(C)C,water,298,-5.88,mol/L
ClC1=C(Cl)C(=CC(=C1)OC2=CC=CC=C2)Cl,water,298,-6.77,mol/L
OCC1OC(C(O)C1O)[N]2C=NC3=C2N=CNC3=O,water,298,-1.23,mol/L
CC(=O)OCCOC[N]1C=NC2=C1N=C(N)NC2=O,water,298,-2.7,mol/L
CN(C(=O)NC(C)(C)C1=CC=CC=C1)C2=CC=CC=C2,water,298,-3.35,mol/L
CC(C)(C)C(O)(CCC1=CC=C(Cl)C=C1)C[N]2C=NC=N2,water,298,-3.93,mol/L
CCC(=O)N(C)C1=CC=C(C=C1)[S](=O)(=O)N(C)C,water,298,-2.48,mol/L
ClC1=CC(=C(OC2=CC=CC=C2)C=C1Cl)Cl,water,298,-6.58,mol/L
CCOC(=O)C(C)C1=CC2=CC=C(OC)C=C2C=C1,water,298,-5.33,mol/L
CC(=O)OC1=CC=CC=C1C(=O)OCC(=O)N2CCOCC2,water,298,-1.8,mol/L
CO[P]1(=S)OCC2=C(O1)C=CC=C2,water,298,-3.7,mol/L
CC(=O)OC1=CC=CC=C1C(=O)OC[S](C)(=O)=O,water,298,-3.39,mol/L
NC1=C(C=CC2=C1C=CC=C2)[S](O)(=O)=O,water,298,-2.96,mol/L
CCCCCCC(C)OC(=O)COC1=NC(=C(Cl)C(=C1Cl)N)F,water,298,-6.43,mol/L
FC1=CC=C(C=C1)N2C(=O)C(=C(Cl)C2=O)Cl,water,298,-4.64,mol/L
FC1=CNC(=O)N(C1=O)C(=O)C2=CC=CC=C2,water,298,-2.26,mol/L
CCCN(CCC)C(=O)COC(=O)C1=CC=CC=C1OC(C)=O,water,298,-2.65,mol/L
CC1=CC(=NC(=N1)NN=C(C)C2=CC=CC=C2C)C,water,298,-3.2,mol/L
CC(=O)OC1=CC=CC=C1C(=O)OCC(=O)NCC(N)=O,water,298,-2.52,mol/L
CCCC(=O)N(C)C1=CC=C(C=C1)[S](=O)(=O)N(C)C,water,298,-2.16,mol/L
CCN(CC)CCCC(C)NC1=CC=NC2=C1C=CC(=C2)Cl,water,298,-2.83,mol/L
CCN(CC)C(=O)C(C)OC(=O)C1=CC=CC=C1OC(C)=O,water,298,-1.6,mol/L
CC(C)N(C(C)C)C(=O)COC(=O)C1=CC=CC=C1OC(C)=O,water,298,-3.25,mol/L
CC(=O)NC1=NC2=C(N=C[N]2COCCO)C(=O)N1,water,298,-1.92,mol/L
CC1=C(NC2=CC=CC=C2C(O)=O)C=CC=C1Cl,water,298,-5.06,mol/L
CCN1C=C(C(=O)OC)C(=O)C2=C1N=C(C)C=C2,water,298,-2.7,mol/L
ClC1=CC=C(C=C1)C2=C(Cl)C(=C(Cl)C=C2)Cl,water,298,-6.88,mol/L
FC1=CN(C(=O)NC1=O)C(=O)OCC2=CC=CC=C2,water,298,-2.82,mol/L
CC1C(SC(=O)N1C(=O)NC2CCCCC2)C3=CC=C(Cl)C=C3,water,298,-5.85,mol/L
FC1(F)OC2=CC=CC(=C2O1)C3=C[NH]C=C3C#N,water,298,-5.21,mol/L
FC1=CN(C(=O)NC1=O)C(=O)OC2=CC=CC=C2,water,298,-2.44,mol/L
CCCCC(=O)N(C)C1=CC=C(C=C1)[S](=O)(=O)N(C)C,water,298,-2.85,mol/L
OC(=O)CN1C(=O)SC2=C1C(=CC=C2)Cl,water,298,-2.61,mol/L
CN(C=NC1=C(C)C=C(C)C=C1)C=NC2=C(C)C=C(C)C=C2,water,298,-5.47,mol/L
CCN(CC)CC(=O)OC[N]1N=CC2=C1N=CNC2=O,water,298,-1.79,mol/L
FC1=CNC(=O)N(C(=O)OC2=CC=CC=C2)C1=O,water,298,-3.22,mol/L
CCCCC(O)(C[N]1C=NC=N1)C2=C(Cl)C=C(Cl)C=C2,water,298,-4.27,mol/L
NC1=NC2=C(N=C[N]2C3OC(CO)C(O)C3O)C(=O)N1,water,298,-2.74,mol/L
OC1=C(OC2=CC=C(Cl)C=C2Cl)C=CC(=C1)Cl,water,298,-4.46,mol/L
CC(=O)OC1=CC=CC=C1C(=O)OC2=CC=CC=C2,water,298,-4.11,mol/L
CC(=O)NC1=C(C)C=C(C)C(=C1)N[S](=O)(=O)C(F)(F)F,water,298,-3.24,mol/L
CN(C)CC/C=C/1C2=C(CCC3=CC=CC=C13)C=CC=C2,water,298,-4.46,mol/L
CC1=CC=CC(=C1N(C[N]2C=CC=N2)C(=O)CCl)C,water,298,-4.21,mol/L
NC1=C(Cl)C(=CC=C1[N+]([O-])=O)OC2=CC=CC=C2,water,298,-5.03,mol/L
COC1=C2OC(=O)C=CC2=CC3=C1OC=C3,water,298,-3.66,mol/L
CCCCCC(=O)N(C)C1=CC=C(C=C1)[S](=O)(=O)N(C)C,water,298,-2.95,mol/L
CC(=O)NC1=NC2=C(C=N1)N=C[N]2COCCOC(C)=O,water,298,-0.73,mol/L
CC(C)(C)C(O)C(CC1=CC=C(Cl)C=C1)[N]2C=NC=N2,water,298,-4.05,mol/L
CCN(CC)C(=O)NC1=CC(=C(OCC(O)CNC(C)(C)C)C=C1)C(C)=O,water,298,-1.9,mol/L
CC1=C(F)C(=C(COC(=O)C2C(\C=C(Cl)\C(F)(F)F)C2(C)C)C(=C1F)F)F,water,298,-7.32,mol/L
CCOC(=O)CNC(=O)COC(=O)C1=CC=CC=C1OC(C)=O,water,298,-1.87,mol/L
ClC1=CC(=C(OC2=CC=C(Cl)C=C2Cl)C=C1)Cl,water,298,-6.82,mol/L
CO[P](=S)(OC)OC1=C(Cl)C=C(C=C1)[N+]([O-])=O,water,298,-4.68,mol/L
FC1=CNC(=O)N(COC(=O)OC2=CC=CC=C2)C1=O,water,298,-2.45,mol/L
CCCCOC(=O)C1(O)C2=CC=CC=C2C3=C1C=CC=C3,water,298,-3.89,mol/L
CCCCCCC(=O)N(C)C1=CC=C(C=C1)[S](=O)(=O)N(C)C,water,298,-3.68,mol/L
CC(C)(C)C(O)C(OC1=CC=C(Cl)C=C1)[N]2C=NC=N2,water,298,-3.97,mol/L
CCCCCCC(=O)N(C)[S](=O)(=O)C1=CC=C(C=C1)N(C)C,water,298,-3.68,mol/L
OC(=O)C1=C2C=CC=CC2=CC3=CC=CC=C13,water,298,-3.42,mol/L
CCCCCCCC(=O)N(C)C1=CC=C(C=C1)[S](=O)(=O)N(C)C,water,298,-3.59,mol/L
CCOC(=O)CN1C(=O)SC2=CC=CC(=C12)Cl,water,298,-3.76,mol/L
CC(=O)OC[N]1C=C2C(=O)N(COC(C)=O)C=NC2=N1,water,298,-1.99,mol/L
CCOC(=O)CN(C)C(=O)COC(=O)C1=CC=CC=C1OC(C)=O,water,298,-2.55,mol/L
CCOC(=O)C(O)(C1=CC=C(Cl)C=C1)C2=CC=C(Cl)C=C2,water,298,-4.4,mol/L
COC1=CC=C2C=C(C=CC2=C1)C(C)C(=O)OCC(N)=O,water,298,-3.93,mol/L
CO[P](=O)(OC)SCN1C(=O)OC2=CC(=CN=C12)Cl,water,298,-2.47,mol/L
CCCN(CCCl)C1=C(C=C(C=C1[N+]([O-])=O)C(F)(F)F)[N+]([O-])=O,water,298,-5.6,mol/L
OC1=C2OC3C(=O)CCC4(O)C5CC(=C2C34CCN5CC=C)C=C1,water,298,-3.39,mol/L
ClC1=CC=C(CN(C2CCCC2)C(=O)NC3=CC=CC=C3)C=C1,water,298,-6.04,mol/L
CC(=O)OC1=CC=CC=C1C(=O)OCN2C(=O)CCC2=O,water,298,-2.77,mol/L
ClC1=C(Cl)C(=CC=C1)C2=C(Cl)C=C(Cl)C(=C2)Cl,water,298,-7.06,mol/L
CO[P](=S)(OC)OC1=C(Cl)C=C(Br)C(=C1)Cl,water,298,-3.96,mol/L
CCOC(=O)NC1=CC(=CC=C1)OC(=O)NC2=CC=CC=C2,water,298,-4.52,mol/L
CC(C(O)=O)C1=CC=C(C=C1)N2CC3=C(C=CC=C3)C2=O,water,298,-4.72,mol/L
CCCCCC(C)OC(=O)COC1=CC=C(Cl)C2=CC=CN=C12,water,298,-5.62,mol/L
CC(=O)NC1=NC2=C(N=C[N]2COCCOC(C)=O)C(=O)N1,water,298,-2.14,mol/L
ClC1=CC=C(Cl)C(=C1)C2=C(Cl)C(=CC=C2Cl)Cl,water,298,-7.19,mol/L
CN(C)[S](=O)(=O)N(SC(F)(Cl)Cl)C1=CC=CC=C1,water,298,-5.41,mol/L
COC(=O)NC(=S)NC1=C(NC(=S)NC(=O)OC)C=CC=C1,water,298,-4.11,mol/L
CC(C)N1C(=O)C2=CC=CC=C2N[S]1(=O)=O,water,298,-2.68,mol/L
[O-][N+]1=NC(=NC2=C1C=C(Cl)C=C2)[N]3C=CN=C3,water,298,-3.63,mol/L
CNC(=O)C(=N\OC)/C1=C(OC2=CC=CC=C2)C=CC=C1,water,298,-3.35,mol/L
CC1=C(C)N=C(N[S](=O)(=O)C2=CC=C(N)C=C2)O1,water,298,-2.22,mol/L
ClC1=CC=C(OC2=C(Cl)C(=C(Cl)C=C2)Cl)C=C1Cl,water,298,-7.67,mol/L
OC(=O)C(=C)CC(=O)C1=CC=C(C=C1)C2=CC=CC=C2Cl,water,298,-3.2,mol/L
CCN(CC)C(=O)CCC(=O)OC[N]1N=CC2=C1N=CNC2=O,water,298,-0.99,mol/L
COC1=CC=C2C=C(C=CC2=C1)C(C)C(=O)OCC(=O)N(C)C,water,298,-4.9,mol/L
CN1CCC(CC1)=C2C3=C(C=CC=C3)C=CC4=C2C=CC=C4,water,298,-5.9,mol/L
CC(C)OC1=CC=CC(=C1)NC(=O)C2=C(C=CC=C2)C(F)(F)F,water,298,-4.53,mol/L
CN(C)[S](=O)(=O)N(SC(F)(Cl)Cl)C1=CC=C(C)C=C1,water,298,-5.59,mol/L
CO[P](=O)(OC)OC(=C\Cl)/C1=C(Cl)C=C(Cl)C(=C1)Cl,water,298,-4.52,mol/L
CO/N=C(C(=O)OC)/C1=C(COC2=C(C)C=CC=C2)C=CC=C1,water,298,-5.19,mol/L
OC1=CC(=C2C(=O)CC(OC2=C1)C3=CC=C(O)C(=C3)O)O,water,298,-3.62,mol/L
CCN1C=C(C(=O)OCOC(C)=O)C(=O)C2=C1N=C(C)C=C2,water,298,-2.49,mol/L
CO[P](=S)(OC)OC1=CC(=C(I)C=C1Cl)Cl,water,298,-6.62,mol/L
CC1(C)SC2C(NC(=O)COC3=CC=CC=C3)C(=O)N2C1C(O)=O,water,298,-3.15,mol/L
COC1=CC=CC(=N1)N(C)C(=S)OC2=CC(=CC=C2)C(C)(C)C,water,298,-6.01,mol/L
ClC1=CC(=C(C=C1)C2=CC(=C(Cl)C(=C2Cl)Cl)Cl)Cl,water,298,-8.52,mol/L
O=C1NC=NC2=C1C=N[N]2COC(=O)C3=CC=CC=C3,water,298,-4.05,mol/L
COCCOC1=C(OC)C=C(CC2=CN=C(N)N=C2N)C=C1OC,water,298,-2.1,mol/L
CCCC(=O)OC[N]1C=C2C(=O)N(COC(=O)CCC)C=NC2=N1,water,298,-3.55,mol/L
ClC1=CC(=C(C=C1)C2=C(Cl)C(=C(Cl)C=C2Cl)Cl)Cl,water,298,-7.47,mol/L
CCN1C=C(C(=O)OCOC(=O)CC)C(=O)C2=C1N=C(C)C=C2,water,298,-2.83,mol/L
CCO[P](=S)(OCC)OC1=CC=C(C=C1)[S](C)(=O)=O,water,298,-3.58,mol/L
CCN(CC)C(=O)COC(=O)C(C)C1=CC2=CC=C(OC)C=C2C=C1,water,298,-4.46,mol/L
COC1=CC=C2C=C(C=CC2=C1)C(C)C(=O)OCC(=O)N(C)CCO,water,298,-3.39,mol/L
ClC1=CC2=C(C=C1Cl)C3=C(O2)C=C(Cl)C(=C3)Cl,water,298,-8.86,mol/L
CO[P](=S)(OC)SCC(=O)N(C(C)C)C1=CC=C(Cl)C=C1,water,298,-4.43,mol/L
CC(C)(C)C(=O)OC[N]1C=C2C(=O)N(COC(=O)C(C)(C)C)C=NC2=N1,water,298,-3.91,mol/L
CC1(C)C(C=C(Cl)Cl)C1C(=O)OCC2=CC=CC(=C2)OC3=CC=CC=C3,water,298,-7.81,mol/L
ClC1=CC(=C(OC2=CC(=C(Cl)C(=C2)Cl)Cl)C=C1Cl)Cl,water,298,-8.72,mol/L
CC(C)OC1=C(Cl)C=C(Cl)C(=C1)N2N=C(OC2=O)C(C)(C)C,water,298,-5.54,mol/L
CCO[P](=S)(OCC)OC1=NC2=C(C=CC=C2)N=C1,water,298,-4.13,mol/L
CC(C)(C)C1=NN(C(=O)O1)C2=C(Cl)C=C(Cl)C(=C2)OCC#C,water,298,-5.96,mol/L
ClC1=CC=C(OC2=C(Cl)C(=C(Cl)C(=C2)Cl)Cl)C=C1Cl,water,298,-8.78,mol/L
ClC1=CC(=C(OC2=CC(=C(Cl)C=C2Cl)Cl)C=C1Cl)Cl,water,298,-8.36,mol/L
CC(=O)NC1=CC=C(OC(=O)C2=CC=CC=C2OC(C)=O)C=C1,water,298,-4.19,mol/L
CC(C)(C)C(=O)OCN1C=NC2=C(C=N[N]2COC(=O)C(C)(C)C)C1=O,water,298,-4.26,mol/L
ClC1=C(Cl)C(=C(OC2=CC(=C(Cl)C=C2Cl)Cl)C=C1)Cl,water,298,-8.31,mol/L
COC(=O)[N]1C2=C(C=CC=C2)N=C1C3=CSC=N3,water,298,-3.11,mol/L
ClC1=C(Cl)C(=C(OC2=CC=C(Cl)C(=C2Cl)Cl)C=C1)Cl,water,298,-8.14,mol/L
CCCC(=O)OCOC(=O)C1=CN(CC)C2=C(C=CC(=N2)C)C1=O,water,298,-2.95,mol/L
ClC1=CC=C(OC2=C(Cl)C(=C(Cl)C(=C2)Cl)Cl)C(=C1)Cl,water,298,-8.44,mol/L
ClC1=CC(=C(OC2=C(Cl)C=C(Cl)C(=C2)Cl)C(=C1)Cl)Cl,water,298,-8.04,mol/L
CN(C)C(=O)NC1=CC(=C(C=C1)N2N=C(OC2=O)C(C)(C)C)Cl,water,298,-4.33,mol/L
CCN1C=C(C(=O)OCOC(=O)C(C)C)C(=O)C2=C1N=C(C)C=C2,water,298,-3.02,mol/L
ClC1=CC(=C(OC2=C(Cl)C(=C(Cl)C=C2)Cl)C(=C1)Cl)Cl,water,298,-8.1,mol/L
FC(F)(F)OC1=CC=C(NC(=O)NC(=O)C2=CC=CC=C2Cl)C=C1,water,298,-7.16,mol/L
ClC1=CC=C(OC2=C(Cl)C(=C(Cl)C(=C2Cl)Cl)Cl)C=C1,water,298,-8.94,mol/L
CC(OC1=CC=C(OC2=NC=C(Cl)C=C2F)C=C1)C(=O)OCC#C,water,298,-5.15,mol/L
COC1=C(CN(C(=O)CCl)C2=C(C)C=CC=C2C)SC=C1,water,298,-4.47,mol/L
CN1C(=O)C(O)N=C(C2=CC=CC=C2)C3=C1C=CC(=C3)Cl,water,298,-2.7,mol/L
CN(C)CCCN1C2=C(SC3=C1C=CC=C3)C=CC=C2,water,298,-2.95,mol/L
[O-][N+](=O)C1=CC=C(OC2=CC=C(C=C2[N+]([O-])=O)C(F)(F)F)C=C1,water,298,-5.22,mol/L
CCOC(=O)C1=C(C)NC(=C(C1C2=CC=CC(=C2Cl)Cl)C(=O)OC)C,water,298,-6.56,mol/L
CCC1=CC=C(C=C1)C(=O)NN(C(=O)C2=CC(=CC(=C2)C)C)C(C)(C)C,water,298,-5.63,mol/L
CN1CCN(CC1)C2=NC3=C(NC4=C2C=CC=C4)C=CC(=C3)Cl,water,298,-4.64,mol/L
CCOC(=O)[N]1C2=C(C=CC=C2)N=C1C3=CSC=N3,water,298,-2.92,mol/L
COC(=O)C1=C(CC(C)C)C(=C(N=C1C(F)F)C(F)(F)F)C2=NCCS2,water,298,-5.2,mol/L
CCO[P](=S)(OC1=CC=C(C=C1)C#N)C2=CC=CC=C2,water,298,-5.7,mol/L
COC1=CC=C2C=C(C=CC2=C1)C(C)C(=O)OCC(=O)N(CCO)CCO,water,298,-2.96,mol/L
NC1=CC2=C(C=CC3=C2C=CC=C3)C4=C1C=CC=C4,water,298,-6.2,mol/L
ClC1=CC2=C(C=C1)N(CC3CC3)C(=O)CN=C2C4=CC=CC=C4,water,298,-4.91,mol/L
COC(=O)C(C)N(C(=O)C1=CC=CC=C1)C2=CC=C(F)C(=C2)Cl,water,298,-3.98,mol/L
CCN(CC)C(=O)COC(=O)C1=CN(CC)C2=C(C=CC(=N2)C)C1=O,water,298,-1.43,mol/L
C1=CC2=C(C=C1)N=C(C=C2)C3=NC4=C(C=CC=C4)C=C3,water,298,-5.4,mol/L
CCO[P](=S)(OCC)N1C(=O)C2=CC=CC=C2C1=O,water,298,-3.35,mol/L
CN(C(=O)COC1=NC2=C(S1)C=CC=C2)C3=CC=CC=C3,water,298,-4.87,mol/L
ClC1=C(C=CC=C1)C2=NN=C(N=N2)C3=C(Cl)C=CC=C3,water,298,-8.08,mol/L
COC1=CC=C2C=C(C=CC2=C1)C(C)C(=O)OCC(=O)N(C)CC(N)=O,water,298,-3.78,mol/L
CCCOC(=O)[N]1C2=C(C=CC=C2)N=C1C3=CSC=N3,water,298,-3.52,mol/L
OC1=C(C2CCCC3=CC=CC=C23)C(=O)OC4=CC=CC=C14,water,298,-4.86,mol/L
CCCCNC(=O)OC1=C(O)C(=CC(=C1)\C=C(C#N)/C(=O)N(CC)CC)[N+]([O-])=O,water,298,-2.32,mol/L
ClC1=CC2=C(OC3=C(O2)C(=CC(=C3)Cl)Cl)C(=C1)Cl,water,298,-9.0,mol/L
ClC1=C(Cl)C=C(OC2=C(Cl)C(=C(Cl)C(=C2)Cl)Cl)C(=C1)Cl,water,298,-9.5,mol/L
ClC1=CC2=C(C=C1Cl)C3=C(O2)C(=C(Cl)C(=C3)Cl)Cl,water,298,-9.2,mol/L
ClC1=CC=C(OC2=C(Cl)C(=C(Cl)C(=C2Cl)Cl)Cl)C=C1Cl,water,298,-9.46,mol/L
CCN(CC)C(=O)\C(=C/C1=CC(=C(O)C(=C1)[N+]([O-])=O)OC(=O)NC(C)(C)C)C#N,water,298,-3.53,mol/L
ClC1=C(Cl)C=C(OC2=C(Cl)C(=CC(=C2Cl)Cl)Cl)C(=C1)Cl,water,298,-9.05,mol/L
FC1=C(C(=CC=C1)F)C(=O)NC(=O)NC2=CC(=C(F)C(=C2F)Cl)Cl,water,298,-7.61,mol/L
ClC1=CC=C(OC2=C(Cl)C(=CC(=C2Cl)Cl)Cl)C(=C1Cl)Cl,water,298,-9.09,mol/L
ClC1=CC=C(Cl)C(=C1Cl)OC2=C(Cl)C(=C(Cl)C(=C2)Cl)Cl,water,298,-8.89,mol/L
CC(C)COC(=O)[N]1C2=C(C=CC=C2)N=C1C3=CSC=N3,water,298,-4.17,mol/L
ClC1=CC=C(C=C1)[S](=O)(=O)C2=C(Cl)C=C(Cl)C(=C2)Cl,water,298,-6.66,mol/L
OC(=O)C1=C(C=CC(=C1)OC2=CC=C(C=C2Cl)C(F)(F)F)[N+]([O-])=O,water,298,-3.48,mol/L
CCO[P](=S)(OC1=CC=C(C=C1)[N+]([O-])=O)C2=CC=CC=C2,water,298,-5.02,mol/L