Solute,Solvent,Temperature_K,Solubility,Units
COc1ccc(Oc2ccc(NC(=O)N(C)C)cc2)cc1,water,298,-4.1558,mol/L
FC(F)(F)c1nc2cc(Cl)c(Cl)cc2n1C(=O)Oc3ccccc3,water,298,-4.4603,mol/L
Cc1cccc(C)c1NC(=O)c2cc(c(Cl)cc2O)[S](N)(=O)=O,water,298,-3.7866,mol/L
CC(C)C(N)C(=O)NCC(O)=O,water,298,0.4579,mol/L
CN(C)C(=O)c1cccc(c1)C(=O)N(C)C,water,298,0.487,mol/L
OC(=O)CCC[Se][Se]CCCC(O)=O,water,298,-2.2471,mol/L
CCOC(=O)COc1ccc(Cl)cc1,water,298,-2.4206,mol/L
COC(=O)C(Cl)Cc1ccc(Cl)cc1,water,298,-3.7655,mol/L
Cc1ccccc1Oc2cccnn2,water,298,-1.969,mol/L
CN1C(=O)NN(C1=O)c2ccccc2,water,298,-2.9804,mol/L
NC(=O)c1ccccc1OCC=C,water,298,-2.2273,mol/L
CCCC\C=C\C,water,298,-3.8298,mol/L
CCN1C=C(C(O)=O)C(=O)c2cc3OCOc3cc12,water,298,-4.9119,mol/L
CC(C)C1NC(=O)CNC1=O,water,298,-0.8926,mol/L
CC(=O)/C=C/C1=C(C)CCCC1(C)C,water,298,-3.0561,mol/L
CCCC(C)C(O)CC,water,298,-1.9636,mol/L
CC1(C)CCC2(CCC(C)(C)O2)O1,water,298,-1.9644,mol/L
Oc1ccccc1[S](=O)(=O)c2ccccc2O,water,298,-3.3192,mol/L
[O-]C(=O)[C@H](Cc1ccccc1)[NH2+]CCC#N,water,298,-1.4939,mol/L
ClC(Cl)C(Cl)C(Cl)Cl,water,298,-2.7223,mol/L
NC(Cc1cc(Cl)c(O)c(Cl)c1)C(O)=O,water,298,-1.7546,mol/L
OC(=O)CC(O)(CC(O)=O)C(=O)Nc1ccccc1,water,298,-0.4874,mol/L
COC(=O)c1ccc(O)c(I)c1,water,298,-3.3138,mol/L
CCOC(=O)c1ccc(O)c(I)c1,water,298,-3.4924,mol/L
CCCOC(=O)c1ccc(O)c(I)c1,water,298,-3.6865,mol/L
CCCCOC(=O)c1ccc(O)c(I)c1,water,298,-3.9033,mol/L
C[C@@H](Oc1ccc(Cl)cc1Cl)C(O)=O,water,298,-2.6003,mol/L
CNC(=O)O\N=C1/[C@@H](Cl)C2C[C@H](C#N)C1C2,water,298,-2.0822,mol/L
CCN(CC)C(=O)C(C)Oc1cccc2ccccc12,water,298,-3.5702,mol/L
OC(=O)Cc1ccccc1Nc2c(Cl)cccc2Cl,water,298,-5.0968,mol/L
Ic1ccccc1C(=O)Nc2ccccc2,water,298,-4.2084,mol/L
OCc1c2OCOc2ccc1[N+]([O-])=O,water,298,-3.0643,mol/L
[O-][N+](=O)c1ccc(Oc2ccc(cc2[N+]([O-])=O)C(F)(F)F)cc1,water,298,-5.2151,mol/L
CN[S]#CNCO,water,298,-0.0798,mol/L
CC(OC(C)=O)C#N,water,298,0.2475,mol/L
N.N.[Cl-].[Cl-].[Pt++],water,298,-2.0741,mol/L
CC(C)Cc1ccc(cc1)C(C)C(O)=O,water,298,-3.9923,mol/L
O=C1Nc2ccccc2NC1=O,water,298,-2.812,mol/L
CCCCC(C)(C)CCC,water,298,-4.8108,mol/L
CCC(C)O,water,298,0.227,mol/L
OC(=O)CSSSSCC(O)=O,water,298,-1.452,mol/L
CCCCOCCOC(N)=O,water,298,-0.5084,mol/L
OCc1c(Cl)c(Cl)c(Cl)c(Cl)c1Cl,water,298,-5.1467,mol/L
[Zn++].CC(O)C([O-])=O.CC(O)C([O-])=O,water,298,-1.1638,mol/L
OC(=O)CC(Cl)C(O)=O,water,298,0.0767,mol/L
CCNC(=O)[C@H](C)OC(=O)Nc1ccccc1,water,298,-1.8293,mol/L
CCCCCC[P](=O)(OCC)OCC,water,298,-2.5687,mol/L
Oc1cc2ccccc2cc1C3=NCCN3,water,298,-3.3015,mol/L
Cc1ccc(O)c(I)c1,water,298,-2.4662,mol/L
CC(=O)Oc1ccccc1\C=C\C(O)=O,water,298,-3.1559,mol/L
C\C=C1/CC2CC1C=C2,water,298,-4.1305,mol/L
CCOC(=O)c1ccc(O)c(Cl)c1,water,298,-3.2232,mol/L
CC(C)C[C@H](N)C(=O)N[C@@H](CCC(O)=O)C(O)=O,water,298,-0.8969,mol/L
CCCC(=O)N(C)N=O,water,298,-1.5347,mol/L
C[C@@H](Oc1ccc(Cl)cc1C)C(O)=O,water,298,-2.3972,mol/L
NC(=O)C(Cl)=C,water,298,-0.2104,mol/L
C=COC1CC1,water,298,-1.1001,mol/L
CC1(CCN2CCCCC2)NC(=O)NC1=O,water,298,-0.8213,mol/L
CC(=O)O[C@H]1[C@H](O[C@@H]2OC(C)(C)O[C@H]12)[C@H]3COC(C)(C)O3,water,298,-1.5229,mol/L
NNC(=O)c1sccn1,water,298,-0.6787,mol/L
CNC(=O)O\N=C(/C)SC,water,298,-0.4466,mol/L
COc1cc(Cl)c(Cl)c(Cl)c1OC,water,298,-4.3701,mol/L
COc1cc(Cl)ccc1O,water,298,-1.5013,mol/L
Nc1ccc(cc1)[S](=O)(=O)Nc2scnn2,water,298,-2.8684,mol/L
CCOC(=O)CC1(C)CCC(=O)O1,water,298,-0.7472,mol/L
CCC(C(C(O)=O)c1ccccc1)C(O)=O,water,298,-2.3256,mol/L
ON(c1ccccc1)C(=O)c2ccc(Cl)cc2Cl,water,298,-3.6723,mol/L
CSc1ncc2nccnc2n1,water,298,-1.7561,mol/L
CC(C)C1(Br)C(=O)NC(=O)NC1=O,water,298,-2.2088,mol/L
N[S](=O)(=O)c1ccc(cc1)[S](N)(=O)=O,water,298,-2.5283,mol/L
CCCCC1(CCCC)C(=O)NC(=O)NC1=O,water,298,-2.8756,mol/L
Oc1cccc2ccnnc12,water,298,-2.4089,mol/L
Cc1cnnc2c(O)cccc12,water,298,-2.6783,mol/L
Oc1cccc2nccnc12,water,298,-1.3468,mol/L
Oc1cncc2cccnc12,water,298,-1.6576,mol/L
NC(=O)NCC(=O)NCC(=O)NCC(O)=O,water,298,-1.3505,mol/L
CCNC(CC)C(O)=O,water,298,-0.4189,mol/L
O[C@H](C(O)=O)c1ccccc1,water,298,0.1592,mol/L
NC(=O)NCC(=O)NCC(O)=O,water,298,-0.8996,mol/L
CC(C)OC(C)(C)C,water,298,-2.3662,mol/L
N[C@@H](Cc1cc(c(O)c(c1)[N+]([O-])=O)[N+]([O-])=O)C(O)=O,water,298,-1.5125,mol/L
CC(C)=NNC(=O)Nc1ccc(cc1)[N+]([O-])=O,water,298,-3.5952,mol/L
COc1c(cc(cc1C(O)=O)C(O)=O)C(O)=O,water,298,-1.5354,mol/L
CCC1OC(=O)c2ccccc12,water,298,-1.747,mol/L
CC1Nc2cc(Cl)c(cc2C(=O)N1c3ccccc3C)[S](N)(=O)=O,water,298,-3.783,mol/L
Cc1nnc(N)nc1C,water,298,-1.0939,mol/L
CN(C)C(CS[S](=O)(=O)c1ccccc1)CS[S](=O)(=O)c2ccccc2,water,298,-5.76,mol/L
CCC(CC#N)C#N,water,298,-0.6916,mol/L
CC1OC(CCC1OC2OC(C)C(C(O)C2O)N(C)C)N3C=CC(=NC3=O)NC(=O)c4ccc(NC(=O)C(C)(N)CO)cc4,water,298,-2.4904,mol/L
OCCOC(=O)c1ccccc1C(O)=O,water,298,-1.4825,mol/L
CCCCNC(=O)n1c(NC(=O)OC)nc2ccccc12,water,298,-4.8831,mol/L
CC(C)C(NC(C)=O)C(O)=O,water,298,-0.3606,mol/L
Nc1cc(c(O)c(c1)[N+]([O-])=O)[N+]([O-])=O,water,298,-2.3853,mol/L
OC(=O)Cc1sc(nc1c2ccc(Cl)cc2)c3ccccc3,water,298,-4.9644,mol/L
C=CCCCN=C=S,water,298,-2.9004,mol/L
Oc1cc(ccc1[N+]([O-])=O)c2ccccc2,water,298,-3.8557,mol/L
COc1c(C)c(C=O)ccc1O,water,298,-1.3755,mol/L
CC(C)OC(=O)c1ccc(N)cc1,water,298,-2.6099,mol/L
CC(C)OC(=O)C(O)(c1ccc(Br)cc1)c2ccc(Br)cc2,water,298,-6.6316,mol/L
C[Si](C)(C)CCCN,water,298,-1.9509,mol/L
NNC(=N)N[N+]([O-])=O,water,298,-1.6458,mol/L
OCc1ccc(I)cc1,water,298,-2.746,mol/L
CC1CCCC(=NO)C1=NO,water,298,-1.5916,mol/L
CC1CCC(=C(C1)NO)N=O,water,298,-1.6622,mol/L
CC(C)C1CCC(=NO)C(C1)=NO,water,298,-2.3903,mol/L
C[C@H](NC(N)=O)C([O-])=O,water,298,-0.9656,mol/L
Cc1cccc2c3cc4ccccc4cc3cc(C)c12,water,298,-7.9743,mol/L
ON=C1CCCCCCCCC1=NO,water,298,-2.5813,mol/L
COC(=O)C1=CO[C@@H](O[C@@H]2O[C@H](CO)[C@@H](O)[C@H](O)[C@H]2O)[C@@H]3[C@@H](C)[C@@H](O)C[C@H]13,water,298,-0.5911,mol/L
CN(C)C(=O)NC1CC2CC1C3CCCC23,water,298,-3.1709,mol/L
CCS[S](=O)CC,water,298,-0.0993,mol/L
CC(C)(C)NCC(O)c1ccc(O)c(CO)c1,water,298,-1.2298,mol/L
COC1CCCC(C)O1,water,298,-0.5921,mol/L
CC1(C)OC2(C)CCC1CC2=O,water,298,-0.9249,mol/L
CNC(=O)N(C)c1sc2ccccc2n1,water,298,-3.5741,mol/L
CCCCC(O)C(C)C,water,298,-1.8122,mol/L
CCC(C)CC(O)CC,water,298,-1.8602,mol/L
CCC(O)CCC(C)C,water,298,-1.9272,mol/L
OC(=O)C1CCC([Se]1)C(O)=O,water,298,-0.545,mol/L
CCO[P](=S)(OCC)Oc1cc(on1)c2ccccc2,water,298,-5.2172,mol/L
CC(C)CC(=O)Oc1ccc(cc1)[N+]([O-])=O,water,298,-4.3945,mol/L
OCc1ccccc1Br,water,298,-2.158,mol/L
CCCN(CCC)c1c(cc(cc1[N+]([O-])=O)[S](N)(=O)=O)[N+]([O-])=O,water,298,-5.1416,mol/L
CC(=O)Nc1ccc(cc1)[S](=O)(=O)Nc2ccccn2,water,298,-3.7162,mol/L
CCc1nc2nc(N)nc(N)c2nc1CC,water,298,-3.2671,mol/L
CNc1ncc2nccnc2n1,water,298,-1.7124,mol/L
COc1cc(NC(=O)c2cccnc2)c3ncccc3c1,water,298,-4.4461,mol/L
N[C@@H]([C@H](O)[C@@H](O)COC(N)=O)C(=O)N[C@@H]([C@H]1O[C@H](C(O)C1O)N2C=C(CO)C(=O)NC2=O)C(O)=O,water,298,0.2946,mol/L
COc1cc(C=O)cc(Cl)c1O,water,298,-2.8747,mol/L
Brc1ccc2COC(=O)c2c1,water,298,-2.6472,mol/L
CCC(C)C(O)C(C)CC,water,298,-2.5108,mol/L
CC(C)C(C)CO,water,298,-0.3699,mol/L
Oc1c(Cl)cc(Cl)cc1Cc2ccccc2,water,298,-4.6399,mol/L
Clc1ccc2COC(=O)c2c1,water,298,-2.4817,mol/L
CC(C)Oc1cc(N2N=C(OC2=O)C(C)(C)C)c(Cl)cc1Cl,water,298,-5.693,mol/L
CCOc1ccc(C(O)=O)c2ccccc12,water,298,-4.1122,mol/L
CCC(C)(O)C(O)c1ccccc1,water,298,-1.7244,mol/L
CC(C)C[C@@H](NC(C)=O)C(O)=O,water,298,-1.3301,mol/L
CCC(C)C(NC(C)=O)C(O)=O,water,298,-0.6205,mol/L
COC[C@H](N)C(O)=O,water,298,0.6524,mol/L
BrC1=CN=CNC1=O,water,298,-0.4471,mol/L
OC1=C(C#N)C(=O)C=C(Cl)N1,water,298,-1.2319,mol/L
CC(CO)C(=O)O[C@H]1CC(=C/CCC(=C/[C@H]2OC(=O)C(=C)[C@H]12)/CO)/C,water,298,-2.2436,mol/L
CCNC(C)C,water,298,1.0597,mol/L
Clc1c(Cl)c(Cl)c2ccccc2c1Cl,water,298,-7.7954,mol/L
CCCCCCCCCCCCOC(=O)c1ccc(N)cc1,water,298,-7.8,mol/L
CCCCCN(N=Cc1oc(cc1)[N+]([O-])=O)C(N)=O,water,298,-2.8971,mol/L
ClC(Cl)(Cl)CC(=C)c1ccccc1,water,298,-4.2822,mol/L
COc1ccc2n(c(C)c(CC(O)=O)c2c1)C(=O)\C=C\c3ccccc3,water,298,-5.5433,mol/L
CCCCCO[P](=O)(OCC)OCC,water,298,-1.4757,mol/L
CCC(C)C(NC(C)=O)C(O)=O,water,298,-0.5981,mol/L
CC(O)C(C)(C)C,water,298,-0.6238,mol/L
CCCCCC(O)CC,water,298,-2.0171,mol/L
CC[S](=O)(=O)CCS[P](=S)(OC)OC,water,298,-2.5415,mol/L
COCC(C)OCC(C)OCC(C)O,water,298,0.6855,mol/L
CN1C(=O)ON(C1=O)c2ccc(Cl)c(Cl)c2,water,298,-5.2407,mol/L
CCCOc1ccc(NC(C)=O)cc1,water,298,-3.0557,mol/L
CC1(C)C2CCC1(C)C(=O)C2CO,water,298,-0.215,mol/L
CN(C(N)=O)c1ccccc1C,water,298,-0.4032,mol/L
CCCCCCO[N+]([O-])=O,water,298,-3.1265,mol/L
CCN(C(N)=O)c1ccccc1C,water,298,-0.2096,mol/L
OC(=O)CC1=CNC(=O)NC1=O,water,298,-1.6287,mol/L
CCCC(O)(CCC)C(O)c1ccccc1,water,298,-2.648,mol/L
CCCCC(O)(CCCC)C(O)c1ccccc1,water,298,-3.2225,mol/L
Cc1cc(C)c(C)c(C)n1,water,298,-1.3069,mol/L
C[C@H]1O[C@H](C[C@H](O)[C@@H]1O)O[C@H]2[C@@H](O)C[C@@H](O[C@@H]2C)O[C@H]3[C@@H](O)C[C@@H](O[C@@H]3C)O[C@H]4CC[C@@]5(C)[C@H](CC[C@@H]6[C@@H]5C[C@@H](O)[C@]7(C)[C@H](CC[C@]67O)C8=CC(=O)OC8)C4,water,298,-4.0811,mol/L
Clc1ccc(NC(NC=O)C(Cl)(Cl)Cl)cc1Cl,water,298,-3.3228,mol/L
S=C1NSC(=S)N1,water,298,-1.7618,mol/L
CSC1=NN=C(C(=O)N1N)C(C)(C)C,water,298,-2.3098,mol/L
CC1CC(C)(C)c2cc(C(C)=O)c(C)cc2C1(C)C,water,298,-5.3154,mol/L
OC(=O)c1cccc(C(O)=O)c1[N+]([O-])=O,water,298,-1.9901,mol/L
CC(C#C)N(C(=O)CCl)c1ccccc1,water,298,-2.6468,mol/L
CC(Cl)C(C)(C)O,water,298,-0.2926,mol/L
Oc1cc(c2ccccc2)c(cc1[N+]([O-])=O)[N+]([O-])=O,water,298,-4.4611,mol/L
CCO[P](=O)(OCC)N=C1SCS1,water,298,-0.6835,mol/L
N#CSCSc1sc2ccccc2n1,water,298,-3.2803,mol/L
CCCC(O)CC(C)C,water,298,-1.9079,mol/L
[O-]C(=O)c1cc(Br)ccc1Cl,water,298,-1.952,mol/L
CN1C(=O)COc2ccccc12,water,298,-2.1445,mol/L
CC(=O)OC(c1ccc(Cl)c(Cl)c1)C(Cl)(Cl)Cl,water,298,-3.8279,mol/L
CCC(O)CNCC(O)CC,water,298,0.7925,mol/L
CCCC(C)O[N+]([O-])=O,water,298,-2.4809,mol/L
[Cl-].C[NH+](C)C(CSC(N)=O)CSC(N)=O,water,298,-0.1364,mol/L
Cc1snnc1C(O)=O,water,298,-0.4598,mol/L
CC(O)C(O)c1cnc2NC(=NC(=O)c2n1)N,water,298,-2.5301,mol/L
CCOC(=O)C(C)N(C(=O)c1ccccc1)c2ccc(Cl)c(Cl)c2,water,298,-4.2627,mol/L
CO[P](=O)(OC)OC(=C/Cl)/c1cc(Cl)c(Cl)cc1Cl,water,298,-4.5221,mol/L
CCOc1ccc(NC(=O)CO)cc1,water,298,-2.1058,mol/L
OC(=O)C(c1ccccc1C(O)=O)c2ccccc2C(O)=O,water,298,-2.4998,mol/L
C[S](=O)(=O)N(SC(Cl)(Cl)C(F)(Cl)Cl)c1ccccc1,water,298,-5.1485,mol/L
OC(=O)CC(=O)c1ccccc1[N+]([O-])=O,water,298,-1.8434,mol/L
CNC(=O)Oc1cccc2OC(C)(C)Oc12,water,298,-2.9338,mol/L
COc1ccc(C[C@@H]2NC[C@@H](O)[C@@H]2OC(C)=O)cc1,water,298,-1.6075,mol/L
[Na+].[O-]C(=O)C(F)(F)C(F)F,water,298,-0.8829,mol/L
CCNc1nc(NC(C)C(C)C)nc(SC)n1,water,298,-3.7082,mol/L
CC(C)Nc1nc(Cl)nc(NC2CC2)n1,water,298,-3.5185,mol/L
CC(C)=C[C@H]1[C@H](C(=O)OC2CC(=O)C(=C2C)CC#C)C1(C)C,water,298,-4.5746,mol/L
CCn1cnc2N(C)C(=O)N(C)C(=O)c12,water,298,-0.7544,mol/L
CN(C)C(=O)Oc1nc(nc(C)c1C)N(C)C,water,298,-1.9457,mol/L
CNC(=O)O\N=C(SC)\C(=O)N(C)C,water,298,0.1062,mol/L
CN1C(=O)N(C)c2ncn(CCCO)c2C1=O,water,298,-0.1551,mol/L
CCC(CO)(CO)COCC(CC)(CO)CO,water,298,-0.9836,mol/L
[H+].[Cl-].CNC(=O)Oc1cccc(c1)N=CN(C)C,water,298,0.5037,mol/L
CCO[P](=S)(OCC)Oc1cc(C)nc(n1)N(CC)CC,water,298,-4.9242,mol/L
CO[P](=O)(OC)OC1=C(Cl)C2C=CCC12,water,298,-2.0011,mol/L
COC(=O)NC(=S)Nc1ccccc1NC(=S)NC(=O)OC,water,298,-4.1097,mol/L
CC(C)(CCC(C)(C)CC(O)=O)CC(O)=O,water,298,-3.1319,mol/L
CCCCCCOC(=O)c1cccnc1,water,298,-2.6538,mol/L
O[P](O)(=O)CN(CCCCCCN(C[P](O)(O)=O)C[P](O)(O)=O)C[P](O)(O)=O,water,298,-1.5161,mol/L
CN(C)c1[nH]c2cncnc2n1,water,298,-1.3885,mol/L
Cc1ncc2nc(C)c(C)nc2n1,water,298,-1.1442,mol/L
NC(=O)NN=C[C@H](O)[C@@H](O)[C@H](O)[C@H](O)CO,water,298,-1.0041,mol/L
OC(=O)C1=CNC(=O)NC1=O,water,298,-1.9381,mol/L
CC(C)(NC(=O)c1cc(Cl)cc(Cl)c1)C#C,water,298,-4.2324,mol/L
CCO[P](=S)(OCC)Oc1ncn(n1)c2ccccc2,water,298,-3.9049,mol/L
CC1(C)OC(=O)c2cc3ccccc3cc12,water,298,-2.9844,mol/L
CC(=O)Nc1ccc(Br)cc1C,water,298,-1.756,mol/L
CC(C)COCN(C(=O)CCl)c1c(C)cccc1C,water,298,-3.6822,mol/L
Cc1occc1C(=O)Nc2ccccc2,water,298,-3.3037,mol/L
CCCCC(CCC(O)=O)CC(O)=O,water,298,-1.3974,mol/L
CN1C=Nc2nccnc2C1=O,water,298,-1.0549,mol/L
CCCCCC1C(CCC1=O)CC(=O)OC,water,298,-2.9076,mol/L
O=C1N=CNc2nc(c3ccccc3)c(nc12)c4ccccc4,water,298,-3.1766,mol/L
Cc1cccc(I)c1O,water,298,-1.8378,mol/L
Clc1ccc(Cl)c(Oc2ccccc2)c1,water,298,-4.9703,mol/L
Clc1ccc(Oc2cc(Cl)cc(Cl)c2)cc1,water,298,-5.5201,mol/L
CCO[P](=S)(OCC)SCCl,water,298,-3.5924,mol/L
CCOC(=O)CN1C(=O)Sc2cccc(Cl)c12,water,298,-3.762,mol/L
OC(=O)COc1ccc(cc1[N+]([O-])=O)[N+]([O-])=O,water,298,-1.9369,mol/L
CC(C)c1ccccc1C,water,298,-3.7595,mol/L
CCCCC(CC)COC(=O)COc1ccc(Cl)cc1Cl,water,298,-7.0122,mol/L
CCC\C=C\C,water,298,-3.2262,mol/L
CCC(O)OC(O)CC,water,298,0.8723,mol/L
N[S](=O)(=O)c1ccc(NC2O[C@H](CO)[C@@H](O)[C@H](O)[C@@H]2O)cc1,water,298,-0.9801,mol/L
CCSC(=O)COc1ccc(Cl)cc1C,water,298,-5.027,mol/L
CC(=O)C(=N\O)/c1ccccc1,water,298,-2.3676,mol/L
CNC(=O)N(C)c1sc(nn1)C(F)(F)F,water,298,-2.0584,mol/L
Br\C=C\Br,water,298,-1.7415,mol/L
OC(=O)\C=C/c1cccc(O)c1,water,298,-2.099,mol/L
COCC(C)OCC(C)OC(C)CO,water,298,0.6855,mol/L
CC(C)c1ccc(cc1)c2ccccc2,water,298,-5.5147,mol/L
[NH4+].CCO[P]([O-])(=O)C(N)=O,water,298,0.7693,mol/L
CC(C)=CC1C(C(=O)OCc2cccc(Oc3ccccc3)c2)C1(C)C,water,298,-7.5579,mol/L
CSC1=CC(=O)c2ccccc2C1=O,water,298,-4.4651,mol/L
CCOC1Oc2ccc(O[S](C)(=O)=O)cc2C1(C)C,water,298,-3.7579,mol/L
CCNc1nc(NC(C)CC)nc(OC)n1,water,298,-2.5604,mol/L
CCCN(CC1CC1)c2c(cc(cc2[N+]([O-])=O)C(F)(F)F)[N+]([O-])=O,water,298,-6.5407,mol/L
CNC(=O)O/N=C/C1(C)SCC(C)S1,water,298,-2.3698,mol/L
Cc1ccc(O[P](=O)(Oc2ccccc2)Oc3ccccc3)cc1,water,298,-6.1517,mol/L
Cc1ccc(O[P](=O)(Oc2ccccc2)Oc3ccccc3C)cc1,water,298,-6.3733,mol/L
CCCCCCCCN1SC=CC1=O,water,298,-2.6301,mol/L
Clc1ccccc1c2c(Cl)c(Cl)c(Cl)c(Cl)c2Cl,water,298,-8.0133,mol/L
CCO[P](=O)(OCC)OCC(C)C,water,298,-1.1765,mol/L
CC(=O)C(CC(O)=O)=Cc1ccccc1,water,298,-1.6111,mol/L
BrC1=CNC(=NC1=O)c2ccccc2,water,298,-3.4792,mol/L
Clc1cc(c2ccccc2)c(Cl)c(Cl)c1Cl,water,298,-6.8026,mol/L
CC(C)CCCCCO,water,298,-2.3085,mol/L
CCCC(=O)OCCOCCOCCOC(=O)CCC,water,298,-1.5598,mol/L
O=C(NC(=O)c1cccnc1)Nc2ccccc2,water,298,-3.3825,mol/L
O=C(OCCCOCCCOC(=O)c1ccccc1)c2ccccc2,water,298,-4.3584,mol/L
ClC1CC(Cl)(Cl)C(Cl)C(Cl)C1Cl.ClC2CCC(Cl)(Cl)C(Cl)C2(Cl)Cl.ClC3C(Cl)C(Cl)C(Cl)C(Cl)C3Cl,water,298,-4.9408,mol/L
CC(C)CCCCCCCOC(=O)CCCCC(=O)OCCCCCCCC(C)C,water,298,-9.9867,mol/L
CCCCCCCCCCC(O)CCC,water,298,-5.837,mol/L
CNC1=C(Cl)C(=O)N(N=C1)c2cccc(c2)C(F)(F)F,water,298,-3.9548,mol/L
Clc1c(Cl)c(Cl)c2C(=O)OCc2c1Cl,water,298,-5.0365,mol/L
CCOC(=O)Cc1[nH]nc2ccc(Cl)cc12,water,298,-3.0256,mol/L
ClC(Cl)C(=O)NC1=C(Cl)C(=O)c2ccccc2C1=O,water,298,-5.0261,mol/L
CC(C)CCCCCOC(=O)c1ccccc1C(=O)OCCCCCC(C)C,water,298,-6.6375,mol/L
C=CCOC1=N[S](=O)(=O)c2ccccc12,water,298,-3.1727,mol/L
CCOC(C)C(=O)C(O)O,water,298,-0.1707,mol/L
Brc1ccc(c(Br)c1Br)c2c(Br)c(Br)c(Br)c(Br)c2Br,water,298,-9.351,mol/L
CC(C)c1ccccc1O[P](=O)(Oc2ccccc2)Oc3ccccc3,water,298,-5.2239,mol/L
S=C1Nc2nc[nH]c2C=N1,water,298,-2.5803,mol/L
Oc1ccc(c(c2ccccc2)c1[N+]([O-])=O)[N+]([O-])=O,water,298,-3.7164,mol/L
CN(C)C(=S)Nc1ccc(Cl)cc1C,water,298,-3.6604,mol/L
Clc1cccc(Cl)c1Oc2ccccc2,water,298,-5.0605,mol/L
CC(C)=CC1C(C(=O)OCc2coc(Cc3ccccc3)c2)C1(C)C,water,298,-6.0524,mol/L
OC(=O)[C@@H]1CC[C@@H](SS1)C(O)=O,water,298,-1.1709,mol/L
CN1C=C(C(=O)NC1=O)[N+]([O-])=O,water,298,-1.9977,mol/L
CC(C)CCCCCCOC(=O)c1ccccc1C(=O)OCCCCCCC(C)C,water,298,-6.3208,mol/L
CCCCCC(O)CC,water,298,-2.3468,mol/L
CCN(CC)c1c(cc(c(N)c1[N+]([O-])=O)C(F)(F)F)[N+]([O-])=O,water,298,-5.4668,mol/L
CCCN(CCC)c1c(cc(c(N)c1[N+]([O-])=O)C(F)(F)F)[N+]([O-])=O,water,298,-7.4305,mol/L
CCN(OC(=O)c1ccccc1)C(=O)c2c(OC)ccc(Cl)c2OC,water,298,-4.0837,mol/L
CC(C)NCC(O)COc1ccc(CC(N)=O)cc1,water,298,-1.3016,mol/L
CCC(CC)(C(N)=O)C(N)=O,water,298,-1.1992,mol/L
COC(=O)N(C)C(=O)CS[P](C)(=S)OC,water,298,-1.9563,mol/L
CCN(CC)c1nc(C)cc(O[P](=S)(OC)OC)n1,water,298,-4.5503,mol/L
CCCCCCCCCCCCC(O)CCC,water,298,-6.7708,mol/L
ON(c1ccccc1)C(=O)c2cccc3ccccc23,water,298,-3.9433,mol/L
ON(C(=O)c1ccccc1)c2cccc3ccccc23,water,298,-3.3065,mol/L
ON(c1ccccc1)C(=O)c2cc(cc(c2)[N+]([O-])=O)[N+]([O-])=O,water,298,-3.6367,mol/L
NC(=S)SCC(O)=O,water,298,-0.7482,mol/L
OC(=O)CNC(=S)SCC(O)=O,water,298,-1.3011,mol/L
O=C(NCCc1c[nH]cn1)c2ccccc2,water,298,-0.634,mol/L
CC(C)CCCCCCCO[P](=O)(Oc1ccccc1)Oc2ccccc2,water,298,-5.7165,mol/L
CCCOCC(C)OCC(C)O,water,298,-0.0701,mol/L
CCCCOCC(C)OCC(C)O,water,298,-0.6262,mol/L
CCSCc1ccccc1OC(=O)NC,water,298,-2.0927,mol/L
C1O[C@@H]1[C@@H]2CO2,water,298,1.065,mol/L
CC[S](=O)(=O)c1sc(nn1)N(C)C(=O)NC,water,298,-1.945,mol/L
C[C@@H](Oc1cc(Cl)c(Cl)cc1Cl)C(O)=O,water,298,-3.1295,mol/L
CCC1CCC(O)O1,water,298,-0.0651,mol/L
C1O[C@H]1[C@H]2CO2,water,298,1.065,mol/L
CC1CCC2(CCC(C)O2)O1,water,298,-0.4487,mol/L
CC1=CN([C@H]2C[C@H](N=[N+]=[N-])[C@@H](CO)O2)C(=O)NC1=O,water,298,-1.1221,mol/L
OCCOCCOC(=O)c1ccccc1Nc2cccc(c2)C(F)(F)F,water,298,-5.3633,mol/L
COc1ncnc2nccnc12,water,298,-1.113,mol/L
CCO[P](=S)(OCC)SCN1C(=O)Oc2ccccc12,water,298,-5.1905,mol/L
C1c2ccccc2c3ccc4ccccc4c13,water,298,-6.678,mol/L
C1c2ccccc2c3cc4ccccc4cc13,water,298,-8.0318,mol/L
COC(=O)C(/C)=C/O[P](=S)(OC)OC,water,298,-2.7785,mol/L
CN(CCO)c1nc2N(C)C(=O)N(C)C(=O)c2n1C,water,298,-0.6488,mol/L
CC(C)CNC(=O)N1CCNC1=O,water,298,-2.1538,mol/L
CC1=CSC(=S)N1CC(O)=O,water,298,-1.9632,mol/L
CN(C(C)=O)c1c(I)c(NC(C)=O)c(I)c(C(=O)NC2[C@@H](O)OC(CO)[C@@H](O)C2O)c1I,water,298,-0.1982,mol/L
CCN[P](=S)(OC)OC(/C)=C\C(=O)OC(C)C,water,298,-3.4078,mol/L
CCCCC(C)C(C)O,water,298,-2.0578,mol/L
COC(=O)Nc1[nH]c2cc(ccc2n1)C(=O)c3ccccc3,water,298,-3.6172,mol/L
Cc1cc2cccc3ccc4c5ccccc5cc1c4c23,water,298,-8.5224,mol/L
CC(C)(O)CCCC1=CCC(CC1)C=O,water,298,-1.5376,mol/L
Clc1cc(Cl)c2c(Cl)c(Cl)c(Cl)c(Cl)c2c1Cl,water,298,-8.775,mol/L
NC1N=C(N)NC(=O)C1=O,water,298,-1.6978,mol/L
OC(=O)c1oc(Cl)c(Cl)c1Cl,water,298,-2.2193,mol/L
CCCCCCC(C\C=C/CCCCCCCC(O)=O)O[S](O)(=O)=O,water,298,-0.5781,mol/L
COc1ccc2NC(=O)C=C(C([O-])=O)c2c1,water,298,-3.1104,mol/L
O[C@@H](C=O)[C@H]1OC(=O)[C@@H](O)[C@H]1O,water,298,0.1641,mol/L
OC(=O)c1occ(Br)c1Br,water,298,-2.0887,mol/L
NC(C(O)C(O)=O)C(N)=O,water,298,-1.1494,mol/L
CCC1=CNC(=O)N=C1N,water,298,-1.0197,mol/L
Clc1ccc(cc1)c2c(Cl)cc(Cl)cc2Cl,water,298,-6.5058,mol/L
Clc1ccc(cc1Cl)c2ccc(Cl)c(Cl)c2Cl,water,298,-7.9823,mol/L
OC(=O)[C@H]1CC[C@@H](SS1)C(O)=O,water,298,-1.5241,mol/L
Clc1cc(cc(Cl)c1Cl)c2cc(Cl)c(Cl)c(Cl)c2,water,298,-8.8498,mol/L
CC12CC1(C)C(=O)N(C2=O)c3cc(Cl)cc(Cl)c3,water,298,-4.8003,mol/L
OC(=O)/C=C/c1cccc(Br)c1,water,298,-2.636,mol/L
CN(C=Nc1ccc(C)cc1C)C=Nc2ccc(C)cc2C,water,298,-5.4675,mol/L
Clc1cc(Cl)c(c(Cl)c1Cl)c2c(Cl)cc(Cl)c(Cl)c2Cl,water,298,-9.1,mol/L
CCc1ccccc1NC(C)=O,water,298,-1.5906,mol/L
ClC1=C(Cl)C2(Cl)[C@@H]3CO[S](=O)OC[C@@H]3[C@@]1(Cl)C2(Cl)Cl,water,298,-5.9563,mol/L
CCCN(CCCl)c1c(cc(cc1[N+]([O-])=O)C(F)(F)F)[N+]([O-])=O,water,298,-5.5968,mol/L
Clc1cc(Cl)cc(c1)c2cc(Cl)cc(Cl)c2,water,298,-8.3748,mol/L
Clc1cc(Cl)c(Cl)c(c2ccccc2)c1Cl,water,298,-7.25,mol/L
CCC(C)C(NC(C)=O)C(O)=O,water,298,-1.2011,mol/L
CCC(C)Nc1c(cc(cc1[N+]([O-])=O)C(C)(C)C)[N+]([O-])=O,water,298,-5.4703,mol/L
CC(=O)c1cc(O)c(O)c(O)c1,water,298,-1.4711,mol/L
CCCN(CCC)c1c(cc(cc1[N+]([O-])=O)C(C)C)[N+]([O-])=O,water,298,-6.4491,mol/L
NN[P](=O)(Oc1ccccc1)Oc2ccccc2,water,298,-2.2373,mol/L
CNC(=O)N(C)c1sc(nn1)C(C)(C)C,water,298,-1.9606,mol/L
COC(=O)C[S](=O)(=O)c1ccccc1,water,298,-1.1406,mol/L
CCSC(=S)N[C@@H](C)C(O)=O,water,298,-0.9613,mol/L
OC(=O)c1cc(Br)cc(C(O)=O)c1C(O)=O,water,298,-1.4481,mol/L
COc1ccc(cc1)C(C(C)[N+]([O-])=O)c2ccc(OC)cc2,water,298,-4.5446,mol/L
CN(C)C(=O)Nc1ccc(N2N=C(OC2=O)C(C)(C)C)c(Cl)c1,water,298,-4.3258,mol/L
CC(C)c1cc(O[P](=O)(Oc2ccccc2)Oc3ccccc3)cc(c1)c4ccccc4,water,298,-6.8485,mol/L
Clc1cc(Br)c(OC(=O)C=C)c2ncccc12,water,298,-4.7168,mol/L
Clc1cc2Oc3c(Cl)c(Cl)c(Cl)c(Cl)c3Oc2cc1Cl,water,298,-10.99,mol/L
COC(C)COC(C)CO,water,298,0.8292,mol/L
CCN(CC)C(=O)SCc1ccccc1Cl,water,298,-4.031,mol/L
CCCS[P](=S)(OCC)Oc1ccc(Cl)cc1Cl,water,298,-6.693,mol/L
CNC(=O)O\N=C(\C)C(C)SC,water,298,-0.7353,mol/L
CNC(=O)O\N=C(/C)C(C)[S](C)(=O)=O,water,298,-0.0267,mol/L
CO[P](=O)(OC)OC1=C(Cl)CC2C=CC12,water,298,-2.0566,mol/L
OC(=O)CSC(SCC(O)=O)SCC(O)=O,water,298,-1.4243,mol/L
Clc1cc(Cl)c(cc1Cl)c2cc(Cl)c(Cl)c(Cl)c2Cl,water,298,-8.0115,mol/L
Clc1ccc(c(Cl)c1Cl)c2cc(Cl)c(Cl)c(Cl)c2Cl,water,298,-8.0566,mol/L
CC(Nc1ccccc1Cl)C(O)=O,water,298,-2.3271,mol/L
CC(C)N(Cc1ccccc1)C(=O)C(C)(C)C,water,298,-2.4704,mol/L
OC(=O)CCCNC(=O)c1ccccc1,water,298,-1.2025,mol/L
Fc1cccc(F)c1C(=O)NC(=O)Nc2ccc(Cl)cc2,water,298,-6.5892,mol/L
CCC(C(CC)C(O)=O)C(O)=O,water,298,-1.4557,mol/L
CCCS[P](=S)(OCC)Oc1ccc(SC)cc1,water,298,-6.0171,mol/L
Cc1cc(O)c(cc1Cl)C(O)=O,water,298,-3.1248,mol/L