Solute,Solvent,Temperature_K,Solubility,Units
O[P](O)(=O)CN(CCCCCCN(C[P](O)(O)=O)C[P](O)(O)=O)CCCCCCN(C[P](O)(O)=O)C[P](O)(O)=O,water,298,-0.095590915,mol/L
[Na+].[O-]C=O,water,298,0.907809072,mol/L
C(CCOCC1CO1)COCC2CO2,water,298,-0.560813739,mol/L
[Cl-].[Cl-].[Pd++],water,298,-0.503697626,mol/L
[Na+].[SH-],water,298,0.990088732,mol/L
NCCC(O)=O,water,298,0.786548045,mol/L
[H+].[H+].[Cl-].[Cl-].CNc1nc(OC)ccc1N,water,298,0.381923091,mol/L
CCC(C)NCCO,water,298,0.666700934,mol/L
N,water,298,1.501957116,mol/L
CC1(C)COC(=O)C1O,water,298,0.618133766,mol/L
OC(=O)CC(O)(CC(O)=O)C(O)=O.C1CNCCN1,water,298,0.287941418,mol/L
[Na+].[Na+].[O-][S](=O)O[S]([O-])=O,water,298,0.453391082,mol/L
CN=C(NCC1CCOC1)N[N+]([O-])=O,water,298,-0.569414718,mol/L
Oc1ccc(O)cc1,water,298,-0.306235751,mol/L
CN=C(NCC1CCOC1)N[N+]([O-])=O,water,298,-0.571011391,mol/L
CCOCCC(=O)OCC,water,298,-0.431708518,mol/L
CNC1CCCCC1,water,298,-0.321468013,mol/L
Cc1cc(N)ccc1N,water,298,-0.354574369,mol/L
COC(=O)CC#N,water,298,-0.263631686,mol/L
[Na+].OCC[S]([O-])(=O)=O,water,298,0.556942214,mol/L
CC[N+](CC)(CC)CC.[O-][S](=O)(=O)C(F)(F)C(F)(F)C(F)(F)C(F)(F)C(F)(F)C(F)(F)C(F)(F)C(F)(F)F,water,298,-0.072180899,mol/L
O=C1NCCN1,water,298,0.789302984,mol/L
CCCCCCCCCCCCCCC(C)c1cc(C)cc(C)c1O,water,298,-6.363736046,mol/L
[Na+].[Na+].CCCCCCCC/C=C/CCCCCCCCOC(=O)C(CC([O-])=O)[S]([O-])(=O)=O,water,298,-0.962426912,mol/L
CCOC(=O)CC#N,water,298,-0.327612407,mol/L
[Na+].[Na+].COc1cc(c(OC)cc1N=NC2C(=NN(C2=O)c3ccc(cc3)[S]([O-])(=O)=O)C)[S](=O)(=O)CCO[S]([O-])(=O)=O,water,298,-0.089843034,mol/L
[Na+].[Na+].OC(=O)C(O)(CC([O-])=O)CC([O-])=O,water,298,0.345413007,mol/L
[Na+].CCOC([S-])=S,water,298,0.55705013,mol/L
NC(=O)CCl,water,298,-0.250712687,mol/L
CN=C(NCC1CCOC1)N[N+]([O-])=O,water,298,-0.587309531,mol/L
CC(CCC#N)C#N,water,298,-0.31550074,mol/L
CCCCOCC(C)O,water,298,-0.405237967,mol/L
NC(Nc1ccccc1)=Nc2ccccc2,water,298,0.390333637,mol/L
O=C1OC=CO1,water,298,0.777076543,mol/L
N,water,298,1.476330027,mol/L
[Na+].CCC(C)OC(S)=S,water,298,0.468876879,mol/L
[NH4+].[NH4+].[O-]C(=O)C([O-])=O,water,298,-0.383640418,mol/L
CN=C(NCC1CCOC1)N[N+]([O-])=O,water,298,-0.596541259,mol/L
CC(O)c1cc(N)ccc1N.[O-][S]([O-])(=O)=O,water,298,-0.68563679,mol/L
Cc1ncoc1C#N,water,298,-0.324555733,mol/L
[Cd++].O[N+]([O-])=O.O[N+]([O-])=O,water,298,0.327636132,mol/L
[Na+].CCOC([S-])=S,water,298,0.544338165,mol/L
[Na+].CCC(C)OC(S)=S,water,298,0.464598081,mol/L
[Cl-].[Cl-].[NH3+]CCCCCCCC[NH3+],water,298,0.362142177,mol/L
CC(C)(C)NC(=O)[C@@H]1C[C@@H]2CCCC[C@H]2C[NH2+]1,water,298,-2.161609361,mol/L
OCCCCCCO,water,298,1.626440718,mol/L
CN(C)CCOC(=O)C(C)=C,water,298,0.502481549,mol/L
[Na+].[Na+].OC(C(O)C([O-])=O)C([O-])=O,water,298,0.411056357,mol/L
CCO[P](=O)(OCC)OCC,water,298,0.438526523,mol/L
OC(=O)C1CCC(=O)N1,water,298,-0.404258917,mol/L
CC(=C)C=O,water,298,-0.146692252,mol/L
CCCC=O,water,298,-0.159007423,mol/L
CCC(=O)CC,water,298,-0.236204612,mol/L
ClCl,water,298,-1.079095506,mol/L
C/C=C/CCC1CCCC(=O)O1,water,298,-1.459506087,mol/L
C1CCSC1,water,298,-1.181917475,mol/L
C/C=C/CCC1CCCC(=O)O1,water,298,-1.465496451,mol/L
CC(=O)Oc1ccccc1,water,298,-1.373595162,mol/L
CCCl,water,298,-1.050748809,mol/L
Clc1cc(Cl)ncn1,water,298,-1.417253114,mol/L
[Na+].[Na+].[Na+].CC(=O)C(N=Nc1ccc(cc1)N=Nc2c(N)c3c(cc2[S]([O-])(=O)=O)C=C(\C(=N/Nc4ccc(c5ccccc45)[S]([O-])(=O)=O)C3=O)[S]([O-])(=O)=O)C(=O)Nc6ccccc6,water,298,-2.218028318,mol/L
Cc1ccc(N)c(C)c1,water,298,-1.335253673,mol/L
Nc1ccccc1Cl,water,298,-1.357574146,mol/L
CC(C)COC(C)=O,water,298,-1.316868576,mol/L
N[P](N)(=O)Oc1ccccc1,water,298,-1.487653403,mol/L
CC(C)OC(=O)C(F)(F)F,water,298,-1.445223222,mol/L
[Na+].CCOc1cccc2C(=O)c3c(Nc4ccccc4[S]([O-])(=O)=O)ccc(NC5CCCCC5)c3C(=O)c12,water,298,-1.987836786,mol/L
CC(=O)c1ccccc1,water,298,-1.3393647,mol/L
CC(CN)CCCN,water,298,-1.327248701,mol/L
CN1C(=CC(=O)N(C)C1=O)N,water,298,-1.453578731,mol/L
C/C=C/CCC1CCCC(=O)O1,water,298,-1.488726291,mol/L
[K+].F[B-](F)(F)F,water,298,-1.367638869,mol/L
NC(CC(O)=O)C(O)=O,water,298,-1.395023054,mol/L
CCCOC(=O)C(/O)=C/Oc1ccccc1,water,298,-1.622546359,mol/L
CCCCOC(C)=O,water,298,-1.340780734,mol/L
NC1=CC(=O)N=C(N)N1,water,298,-1.378146596,mol/L
Cc1ccc(N)c(Cl)c1O,water,298,-1.48155287,mol/L
[N-]=[N+]=C1C(=O)NC(=O)NC1=O,water,298,-1.471757019,mol/L
NC12CC3CC(CC(C3)C1)C2,water,298,-1.463700654,mol/L
CC(COCC(C)OC(=O)C=C)OC(=O)C=C,water,298,-1.668298088,mol/L
OC(=O)c1ccncc1,water,298,-1.375967099,mol/L
OC1CSC(O)CS1,water,298,-1.469038232,mol/L
CC(=O)CCCCCl,water,298,-1.415573876,mol/L
CC1=NN(C(=O)C1)c2ccc(cc2)[S](O)(=O)=O,water,298,-1.692640297,mol/L
Nc1ccccc1Cl,water,298,-1.395644808,mol/L
Cc1ccccc1[S](N)(=O)=O,water,298,-1.525986853,mol/L
CC1CC(NC(N)=O)NC(=O)N1,water,298,-1.531423432,mol/L
Cc1cc(N)ccc1N.O[S](O)(=O)=O,water,298,-1.641347932,mol/L
NN=C(N)N.OC(O)=O,water,298,-1.43492322,mol/L
NC(CC(O)=O)C(O)=O,water,298,-1.42521784,mol/L
Nc1cccc(c1)C(F)(F)F,water,298,-1.508195621,mol/L
NC1CCC(CC1)CC2CCC(N)CC2,water,298,-1.62400348,mol/L
COc1ccc(OC)c(NC(C)=O)c1,water,298,-1.591549855,mol/L
c1ccc2cnccc2c1,water,298,-1.412164757,mol/L
[K+].CC(C)c1ccc(cc1)[S]([O-])(=O)=O,water,298,0.320887212,mol/L
[NH4+].O.NC([O-])=O,water,298,0.711593998,mol/L
[Na+].CC(C)c1ccc(cc1)[S]([O-])(=O)=O,water,298,0.346022737,mol/L
[NH4+].O.NC([O-])=O,water,298,0.707535966,mol/L
CO[S]([O-])(=O)=O.C[N+](C)(C)CCCNC(=O)CCCCCCCCC=C,water,298,0.094063213,mol/L
OCCNc1ccccc1,water,298,-0.440067788,mol/L
O.O.O.O.O.O.O.O.O.O.[Na+].[Na+].[O-]B(OB=O)OB([O-])OB=O,water,298,-0.884641885,mol/L
Nc1ncccc1O,water,298,-0.346106152,mol/L
OCCN(CCO)c1ccccc1,water,298,-0.564515123,mol/L
C=CN1CCCCCC1=O,water,298,-0.450786076,mol/L
CC(=O)OC\C=C(/C)C=O,water,298,-0.460793982,mol/L
OB(O)O,water,298,-0.099255215,mol/L
[Ca++].[Ca++].[Ca++].[O-]B([O-])[O-].[O-]B([O-])[O-],water,298,-0.684341705,mol/L
[K].OB(O)O,water,298,-0.312059473,mol/L
OCCN(CCO)c1ccccc1,water,298,-0.56716058,mol/L
CCC(CO)(CO)C(O)=O,water,298,0.516803854,mol/L
[Pb++].[O-][N+]([O-])=O.[O-][N+]([O-])=O,water,298,0.166535451,mol/L
[Al+3].O[PH]([O-])=O.O[PH]([O-])=O.O[PH]([O-])=O,water,298,-3.505959979,mol/L
[Na+].[Na+].[Na+].OCCN(CCN(CC([O-])=O)CC([O-])=O)CC([O-])=O,water,298,0.144421539,mol/L
OCCN(CCO)c1ccccc1,water,298,-0.571605803,mol/L
[Al+3].O[PH]([O-])=O.O[PH]([O-])=O.O[PH]([O-])=O,water,298,-3.932961516,mol/L
OCCN(CCO)c1ccccc1,water,298,-0.572500334,mol/L
OB(O)O,water,298,-0.106644231,mol/L
[Ca++].[Ca++].[Ca++].[O-]B([O-])[O-].[O-]B([O-])[O-],water,298,-0.69173072,mol/L
[K].OB(O)O,water,298,-0.319448489,mol/L
OCCN(CCO)c1ccccc1,water,298,-0.574294941,mol/L
[Na+].[Na+].OCCN(CCO)c1nc(Nc2ccccc2)nc(Nc3ccc(\C=C\c4ccc(Nc5nc(Nc6ccccc6)nc(n5)N(CCO)CCO)cc4[S]([O-])(=O)=O)c(c3)[S]([O-])(=O)=O)n1,water,298,-1.29966008,mol/L
[Zn++].CC(O)C([O-])=O.CC(O)C([O-])=O,water,298,-0.703505431,mol/L
[Al+3].O[PH]([O-])=O.O[PH]([O-])=O.O[PH]([O-])=O,water,298,-4.006390434,mol/L
[Al+3].O[PH]([O-])=O.O[PH]([O-])=O.O[PH]([O-])=O,water,298,-4.150238703,mol/L
[Al+3].O[PH]([O-])=O.O[PH]([O-])=O.O[PH]([O-])=O,water,298,-4.56794921,mol/L
CC(C)CC(O)=O,water,298,-0.327924852,mol/L
CC[N+]([O-])=O,water,298,-0.194207823,mol/L
[Al+3].O[PH]([O-])=O.O[PH]([O-])=O.O[PH]([O-])=O,water,298,-4.755493728,mol/L
OC(=O)\C=C\C(O)=O,water,298,0.615426674,mol/L
[Cl].[Fe].[O-][S]([O-])(=O)=O,water,298,0.407474946,mol/L
[Cl-].[Cl-].[Cl-].[Fe+3],water,298,0.470092582,mol/L
[Fe++].[O-][S]([O-])(=O)=O,water,298,0.498573496,mol/L
[Cl].[Fe].[O-][S]([O-])(=O)=O,water,298,0.405839183,mol/L
[Cl-].[Cl-].[Cl-].[Fe+3],water,298,0.468456819,mol/L
[Fe++].[O-][S]([O-])(=O)=O,water,298,0.496937733,mol/L
[Cl].[Fe].[O-][S]([O-])(=O)=O,water,298,0.399418662,mol/L
[Cl-].[Cl-].[Cl-].[Fe+3],water,298,0.462036298,mol/L
[Li+].[Li+].[Li+].O.O.O.O.OC(CC([O-])=O)(CC([O-])=O)C([O-])=O,water,298,0.221876471,mol/L
[Fe++].[O-][S]([O-])(=O)=O,water,298,0.490517212,mol/L
CCCCC(=O)N(Cc1ccc(cc1)c2ccccc2c3n[nH]nn3)[C@@H](C(C)C)C(O)=O,water,298,-2.735926094,mol/L
[I-].C[S+](C)(C)=O,water,298,-0.662235197,mol/L
CC(C)COC(=O)[C@@H](C)O,water,298,-0.486387404,mol/L
OCCN(CCO)c1ccccc1,water,298,-0.583380931,mol/L
OCCN(CCO)c1ccccc1,water,298,-0.584300074,mol/L
CCOC(=O)OC,water,298,-0.344450681,mol/L
[Mg++].[Cl-].[Cl-],water,298,0.692207827,mol/L
NCCCCCCN.OC(=O)CCCCC(O)=O,water,298,0.251364785,mol/L
NCCCCCCN.OC(=O)CCCCC(O)=O,water,298,0.251271977,mol/L
[O-][S]([O-])(=O)=O.O=[V++],water,298,0.457118619,mol/L
[Li+].O.O.O.[O-][Cl](=O)(=O)=O,water,298,0.461218862,mol/L
CCOC(=O)OC,water,298,-0.347225735,mol/L
[K+].[O-][S](=O)(=O)C(F)(F)C(F)(F)C(F)(F)C(F)(F)F,water,298,-0.864516218,mol/L
[Cl-].CCN(CCO)c1ccc(cc1)N=Nc2sc3cc(OC)ccc3[n+]2C,water,298,-0.946771482,mol/L
CCN(CCO)c1ccc(cc1)N=Nc2sc3cc(OC)ccc3[n+]2C.CO[S]([O-])(=O)=O,water,298,-1.020815087,mol/L
CCCCOC(=O)CO,water,298,-0.458338912,mol/L
COC(=O)CCl,water,298,-0.372767961,mol/L
[Cl-].[Cl-].[Cd++],water,298,0.39671109,mol/L
[Na+].[O-][S](=O)(=O)CCBr,water,298,0.332748699,mol/L
Oc1ccccc1O,water,298,0.612341891,mol/L
CCN(O)CC,water,298,0.70363191,mol/L
NC(N)=N.NC(N)=N.OC(O)=O,water,298,0.397534856,mol/L
[Li+].CC([O-])=O,water,298,0.833767293,mol/L
CCC(=O)CC,water,298,-0.273361931,mol/L
CCC(=O)CC,water,298,-0.276209773,mol/L
CC(=C)C(=O)OCCOC(=O)CCC(O)=O,water,298,-0.706708916,mol/L
[Cl-].CN(C)[C@H]1[C@@H]2C[C@@H]3[C@H](O)c4c(Cl)ccc(O)c4C(=C3C(=O)[C@]2(O)C(=O)\C(=C(N)/O)C1=O)O.[H+],water,298,-1.046901651,mol/L
CCC(C)C(O)=O,water,298,-0.355953575,mol/L
[NH4+].[NH4+].[O-]C(=O)C([O-])=O,water,298,-0.440545269,mol/L
[Fe+3].[Fe+3].[O-][S]([O-])(=O)=O.[O-][S]([O-])(=O)=O.[O-][S]([O-])(=O)=O,water,298,1.041524079,mol/L
[Cl].[Fe].[O-][S]([O-])(=O)=O,water,298,0.378598818,mol/L
[Cl-].[Cl-].[Cl-].[Fe+3],water,298,0.441216454,mol/L
[Fe++].[O-][S]([O-])(=O)=O,water,298,0.469697368,mol/L
[Zn++].[Br-].[Br-],water,298,1.297742994,mol/L
[Na+].[Na+].[O-][S]([O-])(=O)=O,water,298,0.496427872,mol/L
[Na+].[Na+].[Na+].[Na+].[Na+].[Cr+3].Nc1nc(Cl)nc(Nc2cc(cc3cc(c(N=Nc4cc(ccc4[O-])[N+]([O-])=O)c([O-])c23)[S]([O-])(=O)=O)[S]([O-])(=O)=O)n1.Nc5nc(Cl)nc(Nc6cc(cc7cc(c(N=Nc8cc(ccc8[O-])[N+]([O-])=O)c([O-])c67)[S]([O-])(=O)=O)[S]([O-])(=O)=O)n5,water,298,-0.494975175,mol/L
[Cl].[Fe].[O-][S]([O-])(=O)=O,water,298,1.370773481,mol/L
[Cl-].[Cl-].[Cl-].[Fe+3],water,298,1.433391117,mol/L
[Fe++].[O-][S]([O-])(=O)=O,water,298,1.461872031,mol/L
[Na+].Cc1ccc(OCCC[S]([O-])(=O)=O)c(c1)[N+]([O-])=O,water,298,0.170310359,mol/L
[K+].O[B-](O)(F)F,water,298,-0.437714943,mol/L
[K+].[O-][S](=O)(=O)C(F)(F)C(F)(F)C(F)(F)C(F)(F)F,water,298,-0.882754467,mol/L
Cl.Cl.CCCCC1=NC2(CCCC2)C(=O)N1.CCCCC3=NC(=O)C4(CCCC4)N3,water,298,-1.019613944,mol/L
[Na+].[Na+].[Na+].CCN(c1ccccc1)c2nc(Cl)nc(Nc3cc(cc4C=C(\C(=N/Nc5ccccc5[S]([O-])(=O)=O)C(=O)c34)[S]([O-])(=O)=O)[S]([O-])(=O)=O)n2,water,298,-0.266745284,mol/L
[Cl-].[Cl-].[Zn++],water,298,0.501000636,mol/L
CC1=CN(C2CC(O)C(CO)O2)C(=O)NC1=O,water,298,-0.742062088,mol/L
[K+].O[B-](O)(F)F,water,298,-0.444600844,mol/L
NC(Nc1ccccc1)=Nc2ccccc2,water,298,-0.688546469,mol/L
CCCCN[P](N)(N)=S,water,298,-0.589410762,mol/L
CCN(CC)c1ccc(cc1)C=CC2=[N+](C)c3ccccc3C2(C)C.CC([O-])=O,water,298,-0.960418782,mol/L
CCN(CC)c1ccc(cc1)C=CC2=[N+](C)c3ccccc3C2(C)C.O[P](O)([O-])=O,water,298,-1.000489568,mol/L
[Na].OC(=O)c1cc2ccccc2c(Cc3c(O)c(cc4ccccc34)C(O)=O)c1O,water,298,-0.980758883,mol/L
NC(Cc1[nH]cnc1)C(O)=O,water,298,-0.557302918,mol/L
N.N.O[C@H]([C@@H](O)C(O)=O)C(O)=O,water,298,0.366276763,mol/L
Cc1ncc(CN)c(N)n1,water,298,0.490306563,mol/L
[Mn++].[O-][N+]([O-])=O.[O-][N+]([O-])=O,water,298,1.377095201,mol/L
CN(C)CCCNCCCN(C)C,water,298,0.355850804,mol/L
[H+].[H+].[Cl-].[Cl-].Nc1ccc(OCCO)c(N)c1,water,298,0.246159297,mol/L
[Na+].[Na+].[Na+].OC(CC([O-])=O)(CC([O-])=O)C([O-])=O,water,298,0.216653091,mol/L
OC(=O)CCl,water,298,1.648864075,mol/L
O.O.O.O.O.O.O.O.O.[Al+3].[O-][N+]([O-])=O.[O-][N+]([O-])=O.[O-][N](=O)=O,water,298,-0.940813194,mol/L
[F-].[Na+],water,298,-0.002187262,mol/L
CCNC(=S)NCC,water,298,-0.498087276,mol/L
CC(N)c1ccccc1,water,298,-0.460192409,mol/L
C[C@H](N)c1ccccc1,water,298,-0.460192409,mol/L
COC(C)(C)C,water,298,-0.321973026,mol/L
OC(=O)CCC(N(CC(O)=O)CC(O)=O)C(O)=O,water,298,0.201924838,mol/L
O=C1OC(=O)C=C1,water,298,0.62969768,mol/L
[Na+].COC(=O)c1ccc([O-])cc1,water,298,0.380300188,mol/L
[Na+].NC(CCC(O)=O)C([O-])=O,water,298,0.391961629,mol/L
[Na+].[N-]=[N+]=[N-],water,298,0.804013495,mol/L
[Na+].[Na+].[Mn++].[O-]C(=O)CN(CCN(CC([O-])=O)CC([O-])=O)CC([O-])=O,water,298,0.024802502,mol/L
[Na+].CNCC[S]([O-])(=O)=O,water,298,0.405531988,mol/L
[NH4+].[NH4+].[O-]C(=O)C([O-])=O,water,298,-0.472581501,mol/L
[F-].[Na+],water,298,-0.006124847,mol/L
N[C@@H](CCC(N)=O)C(O)=O,water,298,-0.548311419,mol/L
CC[C@H](C)[C@H](N)C(O)=O,water,298,-0.502953857,mol/L
[H+].[Cl-].OCCNc1ccc2OCOc2c1,water,298,0.272897501,mol/L
[Li+].CC([O-])=O,water,298,0.791214942,mol/L
OC(=O)\C=C\C(O)=O,water,298,0.544866942,mol/L
O=C1OC(=O)C=C1,water,298,0.618115807,mol/L
[Li+].[Li+].[O-]C(=O)CCCCC([O-])=O,water,298,0.409846958,mol/L
[Li+].[Li+].[O-]C(=O)CCCCCCCCC([O-])=O,water,298,0.277876912,mol/L
[Li+].[Li+].[O-]C(=O)CCCCCCCC([O-])=O,water,298,0.30730282,mol/L
[Na+].[Na+].[Na+].[Na+].OCCN(CCO)c1nc(Nc2ccc(cc2)[S]([O-])(=O)=O)nc(Nc3ccc(\C=C\c4ccc(Nc5nc(Nc6ccc(cc6)[S]([O-])(=O)=O)nc(n5)N(CCO)CCO)c(c4)[S]([O-])(=O)=O)cc3[S]([O-])(=O)=O)n1,water,298,-0.457820767,mol/L
[Na+].[Na+].[O-]C([O-])=O,water,298,0.581124668,mol/L
O=C1OC(=O)C=C1,water,298,0.612747451,mol/L
[Na+].[Na+].OCCNc1nc(NCCO)nc(Nc2ccc3C(=O)C(=N/Nc4ccc(cc4)N=Nc5ccc(cc5)[S]([O-])(=O)=O)\C(=Cc3c2)[S]([O-])(=O)=O)n1,water,298,-0.28369802,mol/L
[Na+].OC[C@H](O)C1OC(=O)[C-](O)C1=O,water,298,0.305162362,mol/L
C[C@H]1CO1,water,298,0.838033384,mol/L
[Na+].[Na+].Cc1ccc2nc(sc2c1[S]([O-])(=O)=O)c3ccc(cc3)N=Nc4ccc(cc4)c5sc6c(ccc(C)c6[S]([O-])(=O)=O)n5,water,298,-1.222309624,mol/L
[Co++].CCCCC(CC)C([O-])=O.CCCCC(CC)C([O-])=O,water,298,-0.932948126,mol/L
CCOCCCC(C)OCCOCC(C)CO,water,298,-0.790860844,mol/L
CC(N)c1ccccc1,water,298,-0.481381708,mol/L
[K+].[K+].[Zn++].[O-]C(=O)CN(CCN(CC([O-])=O)CC([O-])=O)CC([O-])=O,water,298,0.237458201,mol/L
[F-].[Na+],water,298,-0.00210652,mol/L
CCCCNC(=O)OCCOC(=O)C=C,water,298,-1.634840597,mol/L
Oc1ccccc1C=O,water,298,-1.396601384,mol/L
[H+].[Cl-].NNc1ccc(Cl)cc1,water,298,-1.563665466,mol/L
OC(=O)c1ccc(O)cc1,water,298,-1.452733897,mol/L
CCCCCCCCN.CCCCO[P](S)(=O)OCCCC,water,298,-1.864233876,mol/L
Nc1nc(N)nc(N)n1,water,298,-1.415052554,mol/L
Cc1cc(C)cc(N)c1,water,298,-1.402200462,mol/L
[Na+].[Co+3].N[S](=O)(=O)c1ccc([O-])c(c1)N=Nc2c([O-])ccc3ccccc23.N[S](=O)(=O)c4ccc([O-])c(c4)N=Nc5c([O-])ccc6ccccc56,water,298,-2.202203848,mol/L
CC1(C)CC(=O)CC(C)(C1)C#N,water,298,-1.54049772,mol/L
[H+].[Cl-].OC1(CCNCC1)c2ccc(Cl)cc2,water,298,-1.720777531,mol/L
CC(C)C1=NN(C(=O)NC(C)(C)C)C(=O)N1N,water,298,-1.708606324,mol/L
Cc1ccccc1Cl,water,298,-1.430287819,mol/L
[NH3+][C@@H](C([O-])=O)c1ccccc1,water,298,-1.508278406,mol/L
CCOC(=O)C(C)=C,water,298,-1.386280245,mol/L
CCCCCCCCN.CCCCO[P](S)(=O)OCCCC,water,298,-1.879697302,mol/L
Nc1cccc(c1)C(F)(F)F,water,298,-1.536919773,mol/L
CC(C)C1=NN(C(=O)NC(C)(C)C)C(=O)N1N,water,298,-1.713231442,mol/L
CC(C)C1=NN(C(=O)NC(C)(C)C)C(=O)N1N,water,298,-1.716967332,mol/L
CC(C)C1=NN(C(=O)NC(C)(C)C)C(=O)N1N,water,298,-1.718847397,mol/L
CC(=O)CCc1ccc(O)cc1,water,298,-1.552040941,mol/L
ClC(Cl)(Cl)[2H],water,298,-1.417811305,mol/L
Nc1cc(Cl)nc(C(O)=O)c1Cl,water,298,0.010331948,mol/L
Nc1cc(Cl)nc(C(O)=O)c1Cl,water,298,-0.004250052,mol/L
CC(=O)Oc1ccccc1C(O)=O,water,298,-1.592898131,mol/L
CC(C)C1=NN(C(=O)NC(C)(C)C)C(=O)N1N,water,298,-1.720735637,mol/L
Nc1cc(Cl)nc(C(O)=O)c1Cl,water,298,-0.008507875,mol/L
OCCNc1ccc(cc1[N+]([O-])=O)N(CCO)CCO,water,298,-1.795385572,mol/L
[F-].[Al+3].[K+],water,298,-1.269901072,mol/L
CC(C)C1=NN(C(=O)NC(C)(C)C)C(=O)N1N,water,298,-1.72358348,mol/L
[Al+3].CCCC[O-].CCCC[O-].CCCC[O-],water,298,-1.737335476,mol/L
FC(F)=C(F)Cl,water,298,-1.412997833,mol/L
Oc1ccc(Cl)cc1Cl,water,298,-1.558983084,mol/L
Nc1ccccc1C(O)=O,water,298,-1.483945298,mol/L
NC(CC(O)=O)C(O)=O,water,298,-1.47097533,mol/L
Cc1c(N)cccc1Cl,water,298,-1.497853807,mol/L
CC(C)C1=NN(C(=O)NC(C)(C)C)C(=O)N1N,water,298,-1.730301982,mol/L
[Na+].[Na+].[Na+].[Na+].Nc1ccc(cc1[S]([O-])(=O)=O)N=Nc2ccc(N=Nc3ccc(N\N=C/4C(=O)c5ccc(NC(=O)c6ccccc6)cc5C=C4[S]([O-])(=O)=O)c7ccc(cc37)[S]([O-])(=O)=O)c8ccc(cc28)[S]([O-])(=O)=O,water,298,-2.393595358,mol/L
O=C1NSc2ccccc12,water,298,-1.534199066,mol/L
NC(N)=N[N+]([O-])=O,water,298,-1.373868705,mol/L
COC(=O)C=C(C)C,water,298,-1.414000411,mol/L
OCC#CCO.ClCC1CO1,water,298,-1.608465251,mol/L
[Na+].[Na+].[Na+].[Na+].[Na+].COc1cc(N=Nc2cc(cc3cc(cc(O)c23)[S]([O-])(=O)=O)[S]([O-])(=O)=O)c(C)cc1N=Nc4c(O)c5c(Nc6nc(Nc7ccccc7)nc(Nc8ccc(cc8)N=Nc9ccc(O)c(c9)C([O-])=O)n6)cc(cc5cc4[S]([O-])(=O)=O)[S]([O-])(=O)=O,water,298,-2.483387966,mol/L
COC(=O)c1ccccc1C(=O)OC,water,298,-1.65474946,mol/L
CC1=NN(C(=O)C1)c2cccc(c2)[S](O)(=O)=O,water,298,-1.771821543,mol/L
CC(=O)OCC=C(C)C,water,298,-1.474321317,mol/L
CCCCCCCC(=O)N(C)C,water,298,-1.600248341,mol/L
CCCCN[P](N)(N)=S,water,298,-1.589814569,mol/L
CCCCCC(C)=O,water,298,-1.433338371,mol/L
CCCC(C)C=O,water,298,-1.377449362,mol/L
CC(C)(C)c1ccc(O)c(O)c1,water,298,-1.597433988,mol/L
O=C1OC(=O)C2CCCCC12,water,298,-1.564736497,mol/L
Nc1ncnc2n(cnc12)C3OC(CO)C(O)C3O,water,298,-1.810959537,mol/L
CCC(CO)(COCC=C)COCC=C,water,298,-1.718248447,mol/L
[O-][N+](=O)OCCOCCO[N+]([O-])=O,water,298,-1.679726956,mol/L
CCCC(C)C=O,water,298,-1.392172618,mol/L
CCCCNCCCC,water,298,-1.503965448,mol/L
[Cl-].[Cl-].[Pd++],water,298,-1.643467372,mol/L
CC(COCC(C)OC(=O)C=C)OCC(C)OC(=O)C=C,water,298,-1.875569091,mol/L
C[C@@H]1CO1,water,298,0.838033384,mol/L
COC(=O)CCCCC(=O)OC,water,298,-1.638978187,mol/L
CCCCN(CCO)CCCC,water,298,-1.636738571,mol/L
CC1CC(CCC1N)CC2CCC(N)C(C)C2,water,298,-1.775280871,mol/L
c1ccc2cnccc2c1,water,298,-1.50907477,mol/L
[Na+].CN(C)C(=S)SCCC[S]([O-])(=O)=O,water,298,0.1779036,mol/L
[NH4+].[Cl-],water,298,0.86830826,mol/L
[K+].[K+].[O-]C(=O)C([O-])=O,water,298,0.372618466,mol/L
[Na+].[Na+].[Na+].[Na+].COc1ccc(cc1N\N=C/2C(=O)c3c(N)c(N=Nc4ccc(cc4)[S](=O)(=O)CCO[S]([O-])(=O)=O)c(cc3C=C2[S]([O-])(=O)=O)[S]([O-])(=O)=O)[S](=O)(=O)CCO[S]([O-])(=O)=O,water,298,-0.416104482,mol/L
CN=C(NCC1CCOC1)N[N+]([O-])=O,water,298,-0.705600914,mol/L
Cc1ccc(cc1N)C(N)=O,water,298,-0.57673192,mol/L
[F-].[Na+],water,298,-0.002543,mol/L
NO,water,298,0.074931087,mol/L
OCc1scnc1,water,298,0.525735536,mol/L
[Na+].NC(CCC(O)=O)C([O-])=O,water,298,0.357286304,mol/L
OC(=O)CC(O)(CC(O)=O)C(O)=O,water,298,0.299619414,mol/L
CC(=O)N1C[C@@H](O)C[C@H]1C([O-])=O,water,298,0.344992722,mol/L
[Na+].[Na+].[Na+].[Na+].[O-][S](=O)(=O)OCC[S](=O)(=O)c1ccc2c(ccc(N\N=C/3C(=O)c4c(NC(=O)c5ccccc5)cc(cc4C=C3[S]([O-])(=O)=O)[S]([O-])(=O)=O)c2[S]([O-])(=O)=O)c1,water,298,-0.389314941,mol/L
[Na].[Na].[Na].[Na].CNc1ccc(/C=C/c2ccc(Nc3nc(Nc4ccc(cc4)[S]([O-])(=O)=O)nc(n3)N5CCOCC5)cc2[S]([O-])(=O)=O)c(c1)[S]([O-])(=O)=O.Cc6nc(Nc7ccc(cc7)[S]([O-])(=O)=O)nc(n6)N8CCOCC8,water,298,-0.484335811,mol/L
[I-].C[S+](C)(C)=O,water,298,-0.756884432,mol/L
Cc1ccc(N)cc1N,water,298,-0.507184532,mol/L
Cc1cc(N)ccc1N,water,298,-0.507184532,mol/L
O.O.O.O.O.O.O.[Co++].[O-][S]([O-])(=O)=O,water,298,0.12713323,mol/L
[Na+].CN(C)C([S-])=S,water,298,0.416892192,mol/L
OCC#CCO,water,298,1.637918894,mol/L
CCN(CC)c1ccc(cc1)[C+](c2ccc(cc2)N(CC)CC)c3ccc(cc3)N(CC)CC.CC([O-])=O,water,298,-0.139560898,mol/L
[NH4+].[Cl-],water,298,0.842254104,mol/L
[Cl-].[K+],water,298,0.698089467,mol/L
[Cl-].Nc1cn(n[o+]1)N2CCOCC2,water,298,0.147198317,mol/L
CCCCC(O)=O,water,298,-0.435134821,mol/L
OC(=O)c1ccc2C(=O)OC(=O)c2c1,water,298,-0.710714539,mol/L
COc1ccc(CO)cc1,water,298,-0.569858245,mol/L
CCCCOC(=O)\C=C/C(O)=O,water,298,-0.667780979,mol/L
CCOCCOC(C)(C)C,water,298,-0.596834756,mol/L
Cc1ccc(NCCO)cc1O,water,298,-0.655055328,mol/L
[Na+].[Na+].COc1cc(c(C)cc1N=NC2C(=NN(C2=O)c3ccc(cc3)[S]([O-])(=O)=O)C)[S](=O)(=O)CCO[S]([O-])(=O)=O,water,298,-0.239003926,mol/L
Nc1ccccc1,water,298,-0.412782439,mol/L
OC1CNC(C1)C(O)=O,water,298,0.439922115,mol/L
[Co++].CC([O-])=O.CC([O-])=O,water,298,0.308277711,mol/L
[Na+].Cc1ccc(cc1N)C(=O)Nc2ccc(cc2)[S]([O-])(=O)=O,water,298,-0.949277587,mol/L
CCOC(=O)C(C)C=C,water,298,-1.576310856,mol/L
CNC(=S)NN,water,298,-0.465572855,mol/L
OC1CCCCC1,water,298,-0.444396151,mol/L